 Entering Gaussian System, Link 0=g09
 Input=g.com
 Output=g.log
 Initial command:
 /cluster/apps/gaussian/g09/l1.exe "/scratch/100315812.tmpdir/Gau-16441.inp" -scrdir="/scratch/100315812.tmpdir/"
 Entering Link 1 = /cluster/apps/gaussian/g09/l1.exe PID=     16442.
  
 Copyright (c) 1988,1990,1992,1993,1995,1998,2003,2009,2013,
            Gaussian, Inc.  All Rights Reserved.
  
 This is part of the Gaussian(R) 09 program.  It is based on
 the Gaussian(R) 03 system (copyright 2003, Gaussian, Inc.),
 the Gaussian(R) 98 system (copyright 1998, Gaussian, Inc.),
 the Gaussian(R) 94 system (copyright 1995, Gaussian, Inc.),
 the Gaussian 92(TM) system (copyright 1992, Gaussian, Inc.),
 the Gaussian 90(TM) system (copyright 1990, Gaussian, Inc.),
 the Gaussian 88(TM) system (copyright 1988, Gaussian, Inc.),
 the Gaussian 86(TM) system (copyright 1986, Carnegie Mellon
 University), and the Gaussian 82(TM) system (copyright 1983,
 Carnegie Mellon University). Gaussian is a federally registered
 trademark of Gaussian, Inc.
  
 This software contains proprietary and confidential information,
 including trade secrets, belonging to Gaussian, Inc.
  
 This software is provided under written license and may be
 used, copied, transmitted, or stored only in accord with that
 written license.
  
 The following legend is applicable only to US Government
 contracts under FAR:
  
                    RESTRICTED RIGHTS LEGEND
  
 Use, reproduction and disclosure by the US Government is
 subject to restrictions as set forth in subparagraphs (a)
 and (c) of the Commercial Computer Software - Restricted
 Rights clause in FAR 52.227-19.
  
 Gaussian, Inc.
 340 Quinnipiac St., Bldg. 40, Wallingford CT 06492
  
  
 ---------------------------------------------------------------
 Warning -- This program may not be used in any manner that
 competes with the business of Gaussian, Inc. or will provide
 assistance to any competitor of Gaussian, Inc.  The licensee
 of this program is prohibited from giving any competitor of
 Gaussian, Inc. access to this program.  By using this program,
 the user acknowledges that Gaussian, Inc. is engaged in the
 business of creating and licensing software in the field of
 computational chemistry and represents and warrants to the
 licensee that it is not a competitor of Gaussian, Inc. and that
 it will not use this program in any manner prohibited above.
 ---------------------------------------------------------------
  

 Cite this work as:
 Gaussian 09, Revision D.01,
 M. J. Frisch, G. W. Trucks, H. B. Schlegel, G. E. Scuseria, 
 M. A. Robb, J. R. Cheeseman, G. Scalmani, V. Barone, B. Mennucci, 
 G. A. Petersson, H. Nakatsuji, M. Caricato, X. Li, H. P. Hratchian, 
 A. F. Izmaylov, J. Bloino, G. Zheng, J. L. Sonnenberg, M. Hada, 
 M. Ehara, K. Toyota, R. Fukuda, J. Hasegawa, M. Ishida, T. Nakajima, 
 Y. Honda, O. Kitao, H. Nakai, T. Vreven, J. A. Montgomery, Jr., 
 J. E. Peralta, F. Ogliaro, M. Bearpark, J. J. Heyd, E. Brothers, 
 K. N. Kudin, V. N. Staroverov, T. Keith, R. Kobayashi, J. Normand, 
 K. Raghavachari, A. Rendell, J. C. Burant, S. S. Iyengar, J. Tomasi, 
 M. Cossi, N. Rega, J. M. Millam, M. Klene, J. E. Knox, J. B. Cross, 
 V. Bakken, C. Adamo, J. Jaramillo, R. Gomperts, R. E. Stratmann, 
 O. Yazyev, A. J. Austin, R. Cammi, C. Pomelli, J. W. Ochterski, 
 R. L. Martin, K. Morokuma, V. G. Zakrzewski, G. A. Voth, 
 P. Salvador, J. J. Dannenberg, S. Dapprich, A. D. Daniels, 
 O. Farkas, J. B. Foresman, J. V. Ortiz, J. Cioslowski, 
 and D. J. Fox, Gaussian, Inc., Wallingford CT, 2013.
 
 ******************************************
 Gaussian 09:  ES64L-G09RevD.01 24-Apr-2013
                17-Sep-2019 
 ******************************************
 %NProcShared=2
 Will use up to    2 processors via shared memory.
 %Mem=4096MB
 %chk=rb3lyp-opt.chk
 ----------------------------------------------------------------------
 #p b3lyp/6-311G(d,p) scf=(maxcycle=2048,cdiis,conver=8) symmetry=(on,l
 oose) int=superfine opt=tight
 ----------------------------------------------------------------------
 1/7=10,14=-1,18=20,19=15,26=5,38=1/1,3;
 2/9=110,12=2,15=-1,17=4,18=3,40=1/2;
 3/5=4,6=6,7=101,11=2,16=1,25=1,30=1,71=1,74=-5,75=-7/1,2,3;
 4//1;
 5/5=2,6=8,7=2048,22=12,38=5/2;
 6/7=2,8=2,9=2,10=2,28=1/1;
 7/30=1/1,2,3,16;
 1/7=10,14=-1,18=20,19=15,26=5/3(2);
 2/9=110/2;
 99//99;
 2/9=110/2;
 3/5=4,6=6,7=101,11=2,16=1,25=1,30=1,71=1,74=-5,75=-7/1,2,3;
 4/5=5,16=3,69=1/1;
 5/5=2,6=8,7=2048,22=12,38=5/2;
 7/30=1/1,2,3,16;
 1/7=10,14=-1,18=20,19=15,26=5/3(-5);
 2/9=110/2;
 6/7=2,8=2,9=2,10=2,19=2,28=1/1;
 99/9=1/99;
 Leave Link    1 at Tue Sep 17 15:24:43 2019, MaxMem=   536870912 cpu:         0.2
 (Enter /cluster/apps/gaussian/g09/l101.exe)
 ----
 benz
 ----
 Symbolic Z-matrix:
 Charge =  0 Multiplicity = 1
 C                    -1.56952   0.49114   0. 
 C                    -3.18148   0.33651  -0.00193 
 C                     0.74048   1.82482   0. 
 C                    -0.79952   1.82482   0. 
 H                    -1.36952   2.81209   0. 
 H                     1.31048   2.81209   0. 
 H                    -4.31369   0.44209  -0.0829 
 H                    -0.90952  -0.40886   0. 
 H                     1.24048   1.02482   0. 
 H                    -3.57341  -0.49347   0.08484 
 
 Add atom      2 valence  3 ND=      2 dihedral       1      2      7     10
 NAtoms=     10 NQM=       10 NQMF=       0 NMMI=      0 NMMIF=      0
                NMic=       0 NMicF=      0.
                    Isotopes and Nuclear Properties:
 (Nuclear quadrupole moments (NQMom) in fm**2, nuclear magnetic moments (NMagM)
  in nuclear magnetons)

  Atom         1           2           3           4           5           6           7           8           9          10
 IAtWgt=          12          12          12          12           1           1           1           1           1           1
 AtmWgt=  12.0000000  12.0000000  12.0000000  12.0000000   1.0078250   1.0078250   1.0078250   1.0078250   1.0078250   1.0078250
 NucSpn=           0           0           0           0           1           1           1           1           1           1
 AtZEff=   0.0000000   0.0000000   0.0000000   0.0000000   0.0000000   0.0000000   0.0000000   0.0000000   0.0000000   0.0000000
 NQMom=    0.0000000   0.0000000   0.0000000   0.0000000   0.0000000   0.0000000   0.0000000   0.0000000   0.0000000   0.0000000
 NMagM=    0.0000000   0.0000000   0.0000000   0.0000000   2.7928460   2.7928460   2.7928460   2.7928460   2.7928460   2.7928460
 AtZNuc=   6.0000000   6.0000000   6.0000000   6.0000000   1.0000000   1.0000000   1.0000000   1.0000000   1.0000000   1.0000000
 Leave Link  101 at Tue Sep 17 15:24:43 2019, MaxMem=   536870912 cpu:         0.4
 (Enter /cluster/apps/gaussian/g09/l103.exe)

 GradGradGradGradGradGradGradGradGradGradGradGradGradGradGradGradGradGrad
 Berny optimization.
 Initialization pass.
                           ----------------------------
                           !    Initial Parameters    !
                           ! (Angstroms and Degrees)  !
 --------------------------                            --------------------------
 ! Name  Definition              Value          Derivative Info.                !
 --------------------------------------------------------------------------------
 ! R1    R(1,2)                  1.6194         estimate D2E/DX2                !
 ! R2    R(1,4)                  1.54           estimate D2E/DX2                !
 ! R3    R(1,8)                  1.1161         estimate D2E/DX2                !
 ! R4    R(2,7)                  1.14           estimate D2E/DX2                !
 ! R5    R(2,10)                 0.922          estimate D2E/DX2                !
 ! R6    R(3,4)                  1.54           estimate D2E/DX2                !
 ! R7    R(3,6)                  1.14           estimate D2E/DX2                !
 ! R8    R(3,9)                  0.9434         estimate D2E/DX2                !
 ! R9    R(4,5)                  1.14           estimate D2E/DX2                !
 ! A1    A(2,1,4)              125.4797         estimate D2E/DX2                !
 ! A2    A(2,1,8)              120.7741         estimate D2E/DX2                !
 ! A3    A(4,1,8)              113.7462         estimate D2E/DX2                !
 ! A4    A(1,2,10)             120.5985         estimate D2E/DX2                !
 ! A5    A(7,2,10)              70.6013         estimate D2E/DX2                !
 ! A6    A(4,3,6)              120.0            estimate D2E/DX2                !
 ! A7    A(4,3,9)              122.0054         estimate D2E/DX2                !
 ! A8    A(6,3,9)              117.9946         estimate D2E/DX2                !
 ! A9    A(1,4,3)              120.0            estimate D2E/DX2                !
 ! A10   A(1,4,5)              120.0            estimate D2E/DX2                !
 ! A11   A(3,4,5)              120.0            estimate D2E/DX2                !
 ! A12   L(1,2,7,10,-1)        191.1997         estimate D2E/DX2                !
 ! A13   L(1,2,7,10,-2)        182.9685         estimate D2E/DX2                !
 ! D1    D(4,1,2,10)          -173.7307         estimate D2E/DX2                !
 ! D2    D(8,1,2,10)             6.3589         estimate D2E/DX2                !
 ! D3    D(2,1,4,3)           -179.9159         estimate D2E/DX2                !
 ! D4    D(2,1,4,5)              0.0841         estimate D2E/DX2                !
 ! D5    D(8,1,4,3)              0.0            estimate D2E/DX2                !
 ! D6    D(8,1,4,5)            180.0            estimate D2E/DX2                !
 ! D7    D(1,2,7,10)           167.0991         estimate D2E/DX2                !
 ! D8    D(6,3,4,1)            180.0            estimate D2E/DX2                !
 ! D9    D(6,3,4,5)              0.0            estimate D2E/DX2                !
 ! D10   D(9,3,4,1)              0.0            estimate D2E/DX2                !
 ! D11   D(9,3,4,5)            180.0            estimate D2E/DX2                !
 --------------------------------------------------------------------------------
 Trust Radius=3.00D-01 FncErr=1.00D-07 GrdErr=1.00D-07
 Number of steps in this run=     43 maximum allowed number of steps=    100.
 GradGradGradGradGradGradGradGradGradGradGradGradGradGradGradGradGradGrad

 Leave Link  103 at Tue Sep 17 15:24:43 2019, MaxMem=   536870912 cpu:         0.0
 (Enter /cluster/apps/gaussian/g09/l202.exe)
                          Input orientation:                          
 ---------------------------------------------------------------------
 Center     Atomic      Atomic             Coordinates (Angstroms)
 Number     Number       Type             X           Y           Z
 ---------------------------------------------------------------------
      1          6           0       -1.569523    0.491143    0.000000
      2          6           0       -3.181477    0.336506   -0.001935
      3          6           0        0.740477    1.824822    0.000000
      4          6           0       -0.799523    1.824822    0.000000
      5          1           0       -1.369523    2.812091    0.000000
      6          1           0        1.310477    2.812091    0.000000
      7          1           0       -4.313685    0.442089   -0.082902
      8          1           0       -0.909523   -0.408857    0.000000
      9          1           0        1.240477    1.024822    0.000000
     10          1           0       -3.573406   -0.493472    0.084837
 ---------------------------------------------------------------------
                    Distance matrix (angstroms):
                    1          2          3          4          5
     1  C    0.000000
     2  C    1.619356   0.000000
     3  C    2.667358   4.194856   0.000000
     4  C    1.540000   2.808700   1.540000   0.000000
     5  H    2.329549   3.067850   2.329549   1.140000   0.000000
     6  H    3.698811   5.128955   1.140000   2.329549   2.680000
     7  H    2.745853   1.140000   5.240552   3.777322   3.780460
     8  H    1.116065   2.391097   2.777017   2.236386   3.253630
     9  H    2.860230   4.475205   0.943398   2.191255   3.163294
    10  H    2.234326   0.921954   4.898089   3.616091   3.973795
                    6          7          8          9         10
     6  H    0.000000
     7  H    6.103686   0.000000
     8  H    3.911893   3.509887   0.000000
     9  H    1.788639   5.585264   2.584170   0.000000
    10  H    5.897988   1.204750   2.666577   5.048355   0.000000
 Stoichiometry    C4H6
 Framework group  C1[X(C4H6)]
 Deg. of freedom    24
 Full point group                 C1      NOp   1
 Largest Abelian subgroup         C1      NOp   1
 Largest concise Abelian subgroup C1      NOp   1
                         Standard orientation:                         
 ---------------------------------------------------------------------
 Center     Atomic      Atomic             Coordinates (Angstroms)
 Number     Number       Type             X           Y           Z
 ---------------------------------------------------------------------
      1          6           0       -0.573822   -0.410661   -0.003582
      2          6           0       -2.106333    0.112508    0.000550
      3          6           0        2.080481   -0.147090   -0.002179
      4          6           0        0.677243    0.487316    0.004957
      5          1           0        0.564595    1.621678    0.016560
      6          1           0        3.006594    0.517647    0.004142
      7          1           0       -3.094536    0.675950   -0.074209
      8          1           0       -0.343214   -1.502583   -0.014810
      9          1           0        2.206496   -1.081984   -0.011758
     10          1           0       -2.805347   -0.483152    0.081599
 ---------------------------------------------------------------------
 Rotational constants (GHZ):     40.8599065      3.4453375      3.1779498
 Leave Link  202 at Tue Sep 17 15:24:43 2019, MaxMem=   536870912 cpu:         0.0
 (Enter /cluster/apps/gaussian/g09/l301.exe)
 Standard basis: 6-311G(d,p) (5D, 7F)
 Ernie: Thresh=  0.10000D-02 Tol=  0.10000D-05 Strict=F.
 There are   112 symmetry adapted cartesian basis functions of A   symmetry.
 There are   108 symmetry adapted basis functions of A   symmetry.
   108 basis functions,   176 primitive gaussians,   112 cartesian basis functions
    15 alpha electrons       15 beta electrons
       nuclear repulsion energy        94.8922897556 Hartrees.
 IExCor=  402 DFT=T Ex+Corr=B3LYP ExCW=0 ScaHFX=  0.200000
 ScaDFX=  0.800000  0.720000  1.000000  0.810000 ScalE2=  1.000000  1.000000
 IRadAn=      7 IRanWt=     -1 IRanGd=            0 ICorTp=0 IEmpDi=  4
 NAtoms=   10 NActive=   10 NUniq=   10 SFac= 1.00D+00 NAtFMM=   60 NAOKFM=F Big=F
 Integral buffers will be    131072 words long.
 Raffenetti 2 integral format.
 Two-electron integral symmetry is turned on.
 Leave Link  301 at Tue Sep 17 15:24:43 2019, MaxMem=   536870912 cpu:         0.1
 (Enter /cluster/apps/gaussian/g09/l302.exe)
 NPDir=0 NMtPBC=     1 NCelOv=     1 NCel=       1 NClECP=     1 NCelD=      1
         NCelK=      1 NCelE2=     1 NClLst=     1 CellRange=     0.0.
 One-electron integrals computed using PRISM.
 NBasis=   108 RedAO= T EigKep=  3.56D-03  NBF=   108
 NBsUse=   108 1.00D-06 EigRej= -1.00D+00 NBFU=   108
 Precomputing XC quadrature grid using
 IXCGrd= 4 IRadAn=           7 IRanWt=          -1 IRanGd=           0 AccXCQ= 0.00D+00.
 Generated NRdTot=       0 NPtTot=           0 NUsed=           0 NTot=          32
 NSgBfM=   112   112   112   112   112 MxSgAt=    10 MxSgA2=    10.
 Leave Link  302 at Tue Sep 17 15:24:43 2019, MaxMem=   536870912 cpu:         0.6
 (Enter /cluster/apps/gaussian/g09/l303.exe)
 DipDrv:  MaxL=1.
 Leave Link  303 at Tue Sep 17 15:24:43 2019, MaxMem=   536870912 cpu:         0.1
 (Enter /cluster/apps/gaussian/g09/l401.exe)
 ExpMin= 1.03D-01 ExpMax= 4.56D+03 ExpMxC= 6.82D+02 IAcc=3 IRadAn=         7 AccDes= 0.00D+00
 Harris functional with IExCor=  402 and IRadAn=       7 diagonalized for initial guess.
 HarFok:  IExCor=  402 AccDes= 0.00D+00 IRadAn=         7 IDoV= 1 UseB2=F ITyADJ=14
 ICtDFT=  3500011 ScaDFX=  1.000000  1.000000  1.000000  1.000000
 FoFCou: FMM=F IPFlag=           0 FMFlag=      100000 FMFlg1=           0
         NFxFlg=           0 DoJE=T BraDBF=F KetDBF=T FulRan=T
         wScrn=  0.000000 ICntrl=     500 IOpCl=  0 I1Cent=   200000004 NGrid=           0
         NMat0=    1 NMatS0=      1 NMatT0=    0 NMatD0=    1 NMtDS0=    0 NMtDT0=    0
 Petite list used in FoFCou.
 Harris En= -155.859140179240    
 JPrj=0 DoOrth=F DoCkMO=F.
 Leave Link  401 at Tue Sep 17 15:24:46 2019, MaxMem=   536870912 cpu:         5.3
 (Enter /cluster/apps/gaussian/g09/l502.exe)
 Closed shell SCF:
 Using DIIS extrapolation, IDIIS=    10.
 Integral symmetry usage will be decided dynamically.
 Keep R1 ints in memory in canonical form, NReq=22512639.
 IVT=     4245218 IEndB=     4245218 NGot=   536870912 MDV=   515300254
 LenX=   515300254 LenY=   515287269
 Requested convergence on RMS density matrix=1.00D-08 within2048 cycles.
 Requested convergence on MAX density matrix=1.00D-06.
 Requested convergence on             energy=1.00D-06.
 Level shift goal  0.100 maximum shift  0.100.
 No special actions if energy rises.
 FoFCou: FMM=F IPFlag=           0 FMFlag=           0 FMFlg1=           0
         NFxFlg=           0 DoJE=F BraDBF=F KetDBF=F FulRan=T
         wScrn=  0.000000 ICntrl=     600 IOpCl=  0 I1Cent=           0 NGrid=           0
         NMat0=    1 NMatS0=   5886 NMatT0=    0 NMatD0=    1 NMtDS0=    0 NMtDT0=    0
 Symmetry not used in FoFCou.
 Integral accuracy reduced to 1.0D-05 until final iterations.

 Cycle   1  Pass 0  IDiag  1:
 E= -155.700683718505    
 DIIS: error= 3.54D-02 at cycle   1 NSaved=   1.
 NSaved= 1 IEnMin= 1 EnMin= -155.700683718505     IErMin= 1 ErrMin= 3.54D-02
 ErrMax= 3.54D-02  0.00D+00 EMaxC= 1.00D+00 BMatC= 1.20D-01 BMatP= 1.20D-01
 IDIUse=1 WtCom= 1.00D+00 WtEn= 0.00D+00
 Coeff-Com:  0.100D+01
 Coeff:      0.100D+01
 Gap=     0.118 Goal=     0.100 Shift=    0.000
 GapD=    0.118 DampG=1.000 DampE=0.500 DampFc=0.5000 IDamp=-1.
 Damping current iteration by 5.00D-01
 RMSDP=5.16D-03 MaxDP=1.23D-01              OVMax= 2.92D-01

 Cycle   2  Pass 0  IDiag  1:
 E= -155.742959057941     Delta-E=       -0.042275339437 Rises=F Damp=T
 DIIS: error= 1.38D-02 at cycle   2 NSaved=   2.
 NSaved= 2 IEnMin= 2 EnMin= -155.742959057941     IErMin= 2 ErrMin= 1.38D-02
 ErrMax= 1.38D-02  0.00D+00 EMaxC= 1.00D+00 BMatC= 1.54D-02 BMatP= 1.20D-01
 IDIUse=1 WtCom= 1.00D+00 WtEn= 0.00D+00
 Coeff-Com:  0.144D+00 0.856D+00
 Coeff:      0.144D+00 0.856D+00
 Gap=     0.114 Goal=     0.100 Shift=    0.000
 GapD=    0.114 DampG=1.000 DampE=0.500 DampFc=0.5000 IDamp=-1.
 Damping current iteration by 5.00D-01
 RMSDP=2.00D-03 MaxDP=5.86D-02 DE=-4.23D-02 OVMax= 2.74D-01

 Cycle   3  Pass 0  IDiag  1:
 E= -155.779741579837     Delta-E=       -0.036782521896 Rises=F Damp=T
 DIIS: error= 7.37D-03 at cycle   3 NSaved=   3.
 NSaved= 3 IEnMin= 3 EnMin= -155.779741579837     IErMin= 3 ErrMin= 7.37D-03
 ErrMax= 7.37D-03  0.00D+00 EMaxC= 1.00D+00 BMatC= 3.07D-03 BMatP= 1.54D-02
 IDIUse=1 WtCom= 1.00D+00 WtEn= 0.00D+00
 Coeff-Com: -0.229D-02 0.230D+00 0.772D+00
 Coeff:     -0.229D-02 0.230D+00 0.772D+00
 Gap=     0.128 Goal=     0.100 Shift=    0.000
 GapD=    0.128 DampG=1.000 DampE=1.000 DampFc=1.0000 IDamp=-1.
 RMSDP=7.07D-04 MaxDP=1.51D-02 DE=-3.68D-02 OVMax= 1.50D-01

 Cycle   4  Pass 0  IDiag  1:
 E= -155.819957730339     Delta-E=       -0.040216150502 Rises=F Damp=F
 DIIS: error= 1.05D-02 at cycle   4 NSaved=   4.
 NSaved= 4 IEnMin= 4 EnMin= -155.819957730339     IErMin= 3 ErrMin= 7.37D-03
 ErrMax= 1.05D-02  0.00D+00 EMaxC= 1.00D+00 BMatC= 2.58D-03 BMatP= 3.07D-03
 IDIUse=1 WtCom= 1.00D+00 WtEn= 0.00D+00
 Coeff-Com: -0.160D-01-0.174D-02 0.490D+00 0.528D+00
 Coeff:     -0.160D-01-0.174D-02 0.490D+00 0.528D+00
 Gap=     0.132 Goal=     0.100 Shift=    0.000
 GapD=    0.132 DampG=1.000 DampE=0.500 DampFc=0.5000 IDamp=-1.
 Damping current iteration by 5.00D-01
 RMSDP=5.45D-04 MaxDP=1.28D-02 DE=-4.02D-02 OVMax= 6.74D-02

 Cycle   5  Pass 0  IDiag  1:
 E= -155.822267005061     Delta-E=       -0.002309274722 Rises=F Damp=T
 DIIS: error= 2.53D-03 at cycle   5 NSaved=   5.
 NSaved= 5 IEnMin= 5 EnMin= -155.822267005061     IErMin= 5 ErrMin= 2.53D-03
 ErrMax= 2.53D-03  0.00D+00 EMaxC= 1.00D+00 BMatC= 3.87D-04 BMatP= 2.58D-03
 IDIUse=1 WtCom= 1.00D+00 WtEn= 0.00D+00
 Coeff-Com: -0.111D-01-0.550D-01 0.249D+00 0.685D-01 0.749D+00
 Coeff:     -0.111D-01-0.550D-01 0.249D+00 0.685D-01 0.749D+00
 Gap=     0.132 Goal=     0.100 Shift=    0.000
 GapD=    0.132 DampG=1.000 DampE=1.000 DampFc=1.0000 IDamp=-1.
 RMSDP=1.56D-04 MaxDP=3.37D-03 DE=-2.31D-03 OVMax= 2.96D-02

 Cycle   6  Pass 0  IDiag  1:
 E= -155.823225651272     Delta-E=       -0.000958646211 Rises=F Damp=F
 DIIS: error= 3.44D-04 at cycle   6 NSaved=   6.
 NSaved= 6 IEnMin= 6 EnMin= -155.823225651272     IErMin= 6 ErrMin= 3.44D-04
 ErrMax= 3.44D-04  0.00D+00 EMaxC= 1.00D+00 BMatC= 1.17D-05 BMatP= 3.87D-04
 IDIUse=1 WtCom= 1.00D+00 WtEn= 0.00D+00
 Coeff-Com: -0.892D-03-0.232D-01 0.478D-01-0.316D-01 0.266D+00 0.742D+00
 Coeff:     -0.892D-03-0.232D-01 0.478D-01-0.316D-01 0.266D+00 0.742D+00
 Gap=     0.133 Goal=     0.100 Shift=    0.000
 RMSDP=2.47D-05 MaxDP=4.70D-04 DE=-9.59D-04 OVMax= 1.38D-03

 Cycle   7  Pass 0  IDiag  1:
 E= -155.823237080780     Delta-E=       -0.000011429507 Rises=F Damp=F
 DIIS: error= 2.01D-04 at cycle   7 NSaved=   7.
 NSaved= 7 IEnMin= 7 EnMin= -155.823237080780     IErMin= 7 ErrMin= 2.01D-04
 ErrMax= 2.01D-04  0.00D+00 EMaxC= 1.00D+00 BMatC= 8.82D-07 BMatP= 1.17D-05
 IDIUse=1 WtCom= 1.00D+00 WtEn= 0.00D+00
 Coeff-Com:  0.631D-03-0.696D-02 0.908D-02-0.190D-01 0.601D-01 0.181D+00
 Coeff-Com:  0.775D+00
 Coeff:      0.631D-03-0.696D-02 0.908D-02-0.190D-01 0.601D-01 0.181D+00
 Coeff:      0.775D+00
 Gap=     0.133 Goal=     0.100 Shift=    0.000
 RMSDP=8.74D-06 MaxDP=2.01D-04 DE=-1.14D-05 OVMax= 8.50D-04

 Initial convergence to 1.0D-05 achieved.  Increase integral accuracy.
 Cycle   8  Pass 1  IDiag  1:
 E= -155.823238875809     Delta-E=       -0.000001795029 Rises=F Damp=F
 DIIS: error= 2.39D-05 at cycle   1 NSaved=   1.
 NSaved= 1 IEnMin= 1 EnMin= -155.823238875809     IErMin= 1 ErrMin= 2.39D-05
 ErrMax= 2.39D-05  0.00D+00 EMaxC= 1.00D+00 BMatC= 3.34D-08 BMatP= 3.34D-08
 IDIUse=1 WtCom= 1.00D+00 WtEn= 0.00D+00
 Coeff-Com:  0.100D+01
 Coeff:      0.100D+01
 Gap=     0.133 Goal=     0.100 Shift=    0.000
 RMSDP=8.74D-06 MaxDP=2.01D-04 DE=-1.80D-06 OVMax= 2.06D-04

 Cycle   9  Pass 1  IDiag  1:
 E= -155.823238815166     Delta-E=        0.000000060642 Rises=F Damp=F
 DIIS: error= 3.76D-05 at cycle   2 NSaved=   2.
 NSaved= 2 IEnMin= 1 EnMin= -155.823238875809     IErMin= 1 ErrMin= 2.39D-05
 ErrMax= 3.76D-05  0.00D+00 EMaxC= 1.00D+00 BMatC= 9.07D-08 BMatP= 3.34D-08
 IDIUse=1 WtCom= 1.00D+00 WtEn= 0.00D+00
 Coeff-Com:  0.624D+00 0.376D+00
 Coeff:      0.624D+00 0.376D+00
 Gap=     0.133 Goal=     0.100 Shift=    0.000
 RMSDP=1.88D-06 MaxDP=5.47D-05 DE= 6.06D-08 OVMax= 1.46D-04

 Cycle  10  Pass 1  IDiag  1:
 E= -155.823238908180     Delta-E=       -0.000000093013 Rises=F Damp=F
 DIIS: error= 8.68D-06 at cycle   3 NSaved=   3.
 NSaved= 3 IEnMin= 3 EnMin= -155.823238908180     IErMin= 3 ErrMin= 8.68D-06
 ErrMax= 8.68D-06  0.00D+00 EMaxC= 1.00D+00 BMatC= 3.70D-09 BMatP= 3.34D-08
 IDIUse=1 WtCom= 1.00D+00 WtEn= 0.00D+00
 Coeff-Com:  0.434D+00 0.278D+00 0.288D+00
 Coeff:      0.434D+00 0.278D+00 0.288D+00
 Gap=     0.133 Goal=     0.100 Shift=    0.000
 RMSDP=4.17D-07 MaxDP=1.05D-05 DE=-9.30D-08 OVMax= 4.05D-05

 Cycle  11  Pass 1  IDiag  1:
 E= -155.823238912491     Delta-E=       -0.000000004312 Rises=F Damp=F
 DIIS: error= 1.53D-06 at cycle   4 NSaved=   4.
 NSaved= 4 IEnMin= 4 EnMin= -155.823238912491     IErMin= 4 ErrMin= 1.53D-06
 ErrMax= 1.53D-06  0.00D+00 EMaxC= 1.00D+00 BMatC= 9.84D-11 BMatP= 3.70D-09
 IDIUse=1 WtCom= 1.00D+00 WtEn= 0.00D+00
 Coeff-Com:  0.142D+00 0.983D-01 0.105D+00 0.654D+00
 Coeff:      0.142D+00 0.983D-01 0.105D+00 0.654D+00
 Gap=     0.133 Goal=     0.100 Shift=    0.000
 RMSDP=1.43D-07 MaxDP=3.22D-06 DE=-4.31D-09 OVMax= 1.70D-05

 Cycle  12  Pass 1  IDiag  1:
 E= -155.823238912411     Delta-E=        0.000000000080 Rises=F Damp=F
 DIIS: error= 2.55D-06 at cycle   5 NSaved=   5.
 NSaved= 5 IEnMin= 4 EnMin= -155.823238912491     IErMin= 4 ErrMin= 1.53D-06
 ErrMax= 2.55D-06  0.00D+00 EMaxC= 1.00D+00 BMatC= 1.69D-10 BMatP= 9.84D-11
 IDIUse=1 WtCom= 1.00D+00 WtEn= 0.00D+00
 Coeff-Com:  0.232D-01 0.231D-01 0.686D-02 0.561D+00 0.386D+00
 Coeff:      0.232D-01 0.231D-01 0.686D-02 0.561D+00 0.386D+00
 Gap=     0.133 Goal=     0.100 Shift=    0.000
 RMSDP=9.78D-08 MaxDP=2.43D-06 DE= 8.05D-11 OVMax= 1.11D-05

 Cycle  13  Pass 1  IDiag  1:
 E= -155.823238912610     Delta-E=       -0.000000000200 Rises=F Damp=F
 DIIS: error= 3.14D-07 at cycle   6 NSaved=   6.
 NSaved= 6 IEnMin= 6 EnMin= -155.823238912610     IErMin= 6 ErrMin= 3.14D-07
 ErrMax= 3.14D-07  0.00D+00 EMaxC= 1.00D+00 BMatC= 6.57D-12 BMatP= 9.84D-11
 IDIUse=1 WtCom= 1.00D+00 WtEn= 0.00D+00
 Coeff-Com: -0.189D-01-0.880D-02-0.341D-01 0.137D+00 0.201D+00 0.724D+00
 Coeff:     -0.189D-01-0.880D-02-0.341D-01 0.137D+00 0.201D+00 0.724D+00
 Gap=     0.133 Goal=     0.100 Shift=    0.000
 RMSDP=2.08D-08 MaxDP=3.78D-07 DE=-2.00D-10 OVMax= 1.66D-06

 Cycle  14  Pass 1  IDiag  1:
 E= -155.823238912617     Delta-E=       -0.000000000006 Rises=F Damp=F
 DIIS: error= 4.91D-08 at cycle   7 NSaved=   7.
 NSaved= 7 IEnMin= 7 EnMin= -155.823238912617     IErMin= 7 ErrMin= 4.91D-08
 ErrMax= 4.91D-08  0.00D+00 EMaxC= 1.00D+00 BMatC= 2.96D-13 BMatP= 6.57D-12
 IDIUse=1 WtCom= 1.00D+00 WtEn= 0.00D+00
 Coeff-Com: -0.996D-02-0.517D-02-0.174D-01 0.342D-01 0.681D-01 0.321D+00
 Coeff-Com:  0.609D+00
 Coeff:     -0.996D-02-0.517D-02-0.174D-01 0.342D-01 0.681D-01 0.321D+00
 Coeff:      0.609D+00
 Gap=     0.133 Goal=     0.100 Shift=    0.000
 RMSDP=4.56D-09 MaxDP=8.38D-08 DE=-6.48D-12 OVMax= 1.54D-07

 SCF Done:  E(RB3LYP) =  -155.823238913     A.U. after   14 cycles
            NFock= 14  Conv=0.46D-08     -V/T= 2.0089
 KE= 1.544521335217D+02 PE=-5.499312121145D+02 EE= 1.447635499245D+02
 Leave Link  502 at Tue Sep 17 15:25:17 2019, MaxMem=   536870912 cpu:        62.1
 (Enter /cluster/apps/gaussian/g09/l601.exe)
 Copying SCF densities to generalized density rwf, IOpCl= 0 IROHF=0.

 **********************************************************************

            Population analysis using the SCF density.

 **********************************************************************

 Orbital symmetries:
       Occupied  (A) (A) (A) (A) (A) (A) (A) (A) (A) (A) (A) (A)
                 (A) (A) (A)
       Virtual   (A) (A) (A) (A) (A) (A) (A) (A) (A) (A) (A) (A)
                 (A) (A) (A) (A) (A) (A) (A) (A) (A) (A) (A) (A)
                 (A) (A) (A) (A) (A) (A) (A) (A) (A) (A) (A) (A)
                 (A) (A) (A) (A) (A) (A) (A) (A) (A) (A) (A) (A)
                 (A) (A) (A) (A) (A) (A) (A) (A) (A) (A) (A) (A)
                 (A) (A) (A) (A) (A) (A) (A) (A) (A) (A) (A) (A)
                 (A) (A) (A) (A) (A) (A) (A) (A) (A) (A) (A) (A)
                 (A) (A) (A) (A) (A) (A) (A) (A) (A)
 The electronic state is 1-A.
 Alpha  occ. eigenvalues --  -10.24156 -10.22284 -10.19214 -10.19084  -0.76710
 Alpha  occ. eigenvalues --   -0.72438  -0.65651  -0.56795  -0.46342  -0.44341
 Alpha  occ. eigenvalues --   -0.38868  -0.38443  -0.32501  -0.29691  -0.21489
 Alpha virt. eigenvalues --   -0.08217   0.01247   0.02329   0.06059   0.06751
 Alpha virt. eigenvalues --    0.08570   0.12268   0.14659   0.16210   0.21551
 Alpha virt. eigenvalues --    0.25199   0.28521   0.33889   0.36571   0.38643
 Alpha virt. eigenvalues --    0.40725   0.41368   0.44203   0.50310   0.50848
 Alpha virt. eigenvalues --    0.51489   0.52203   0.56817   0.57599   0.59693
 Alpha virt. eigenvalues --    0.62147   0.66219   0.66669   0.73536   0.76524
 Alpha virt. eigenvalues --    0.78501   0.83049   0.87773   0.97186   1.01747
 Alpha virt. eigenvalues --    1.04419   1.08702   1.16039   1.19095   1.35482
 Alpha virt. eigenvalues --    1.36376   1.37183   1.40897   1.45799   1.48315
 Alpha virt. eigenvalues --    1.51829   1.53568   1.54918   1.62097   1.65590
 Alpha virt. eigenvalues --    1.66010   1.74589   1.76237   1.81679   1.82300
 Alpha virt. eigenvalues --    1.85438   1.94692   1.96877   1.97654   2.02584
 Alpha virt. eigenvalues --    2.09299   2.09987   2.10503   2.15242   2.21254
 Alpha virt. eigenvalues --    2.21776   2.37974   2.45920   2.52792   2.54267
 Alpha virt. eigenvalues --    2.57176   2.59258   2.60633   2.65377   2.66468
 Alpha virt. eigenvalues --    2.69074   2.75307   2.80685   2.85060   2.87182
 Alpha virt. eigenvalues --    2.95729   3.04274   3.13732   3.29187   3.37496
 Alpha virt. eigenvalues --    3.80102   3.82727   4.06114   4.25603  23.60692
 Alpha virt. eigenvalues --   23.65653  23.88109  23.96088
          Condensed to atoms (all electrons):
               1          2          3          4          5          6
     1  C    4.907315   0.538859  -0.051082   0.408199  -0.035492   0.003652
     2  C    0.538859   5.036356   0.001645  -0.050876  -0.000628  -0.000162
     3  C   -0.051082   0.001645   4.949181   0.550417  -0.032983   0.396335
     4  C    0.408199  -0.050876   0.550417   4.910081   0.396522  -0.027113
     5  H   -0.035492  -0.000628  -0.032983   0.396522   0.544060  -0.004155
     6  H    0.003652  -0.000162   0.396335  -0.027113  -0.004155   0.550178
     7  H   -0.015719   0.390378   0.000038  -0.002416   0.000730  -0.000002
     8  H    0.397291  -0.024149  -0.002241  -0.047561   0.004623  -0.000118
     9  H   -0.003645   0.000034   0.417259  -0.031327   0.004458  -0.036878
    10  H   -0.023894   0.354416  -0.000193   0.005054  -0.000363   0.000009
               7          8          9         10
     1  C   -0.015719   0.397291  -0.003645  -0.023894
     2  C    0.390378  -0.024149   0.000034   0.354416
     3  C    0.000038  -0.002241   0.417259  -0.000193
     4  C   -0.002416  -0.047561  -0.031327   0.005054
     5  H    0.000730   0.004623   0.004458  -0.000363
     6  H   -0.000002  -0.000118  -0.036878   0.000009
     7  H    0.651341   0.003558   0.000004  -0.139601
     8  H    0.003558   0.539123   0.003230  -0.007455
     9  H    0.000004   0.003230   0.529055  -0.000007
    10  H   -0.139601  -0.007455  -0.000007   0.706008
 Mulliken charges:
               1
     1  C   -0.125484
     2  C   -0.245873
     3  C   -0.228376
     4  C   -0.110980
     5  H    0.123229
     6  H    0.118254
     7  H    0.111688
     8  H    0.133698
     9  H    0.117817
    10  H    0.106027
 Sum of Mulliken charges =   0.00000
 Mulliken charges with hydrogens summed into heavy atoms:
               1
     1  C    0.008214
     2  C   -0.028158
     3  C    0.007694
     4  C    0.012249
 Electronic spatial extent (au):  <R**2>=            407.3247
 Charge=              0.0000 electrons
 Dipole moment (field-independent basis, Debye):
    X=             -0.2094    Y=             -0.4961    Z=              0.0029  Tot=              0.5385
 Quadrupole moment (field-independent basis, Debye-Ang):
   XX=            -19.2955   YY=            -24.1344   ZZ=            -29.9710
   XY=              0.1234   XZ=             -0.0223   YZ=              0.0228
 Traceless Quadrupole moment (field-independent basis, Debye-Ang):
   XX=              5.1715   YY=              0.3326   ZZ=             -5.5040
   XY=              0.1234   XZ=             -0.0223   YZ=              0.0228
 Octapole moment (field-independent basis, Debye-Ang**2):
  XXX=            -15.0915  YYY=             -2.0973  ZZZ=              0.0553  XYY=              4.2640
  XXY=              0.3144  XXZ=              0.0206  XZZ=              0.0169  YZZ=             -0.5231
  YYZ=             -0.0139  XYZ=              0.1706
 Hexadecapole moment (field-independent basis, Debye-Ang**3):
 XXXX=           -360.5282 YYYY=            -65.1025 ZZZZ=            -35.7559 XXXY=             -1.0010
 XXXZ=             -0.0284 YYYX=              1.7832 YYYZ=              0.1813 ZZZX=             -0.2097
 ZZZY=              0.0146 XXYY=            -92.1125 XXZZ=            -95.6845 YYZZ=            -19.1346
 XXYZ=             -0.2223 YYXZ=             -0.0390 ZZXY=             -0.1359
 N-N= 9.489228975560D+01 E-N=-5.499312062026D+02  KE= 1.544521335217D+02
 No NMR shielding tensors so no spin-rotation constants.
 Leave Link  601 at Tue Sep 17 15:25:18 2019, MaxMem=   536870912 cpu:         0.2
 (Enter /cluster/apps/gaussian/g09/l701.exe)
 Compute integral first derivatives.
 ... and contract with generalized density number  0.
 Leave Link  701 at Tue Sep 17 15:25:18 2019, MaxMem=   536870912 cpu:         0.2
 (Enter /cluster/apps/gaussian/g09/l702.exe)
 L702 exits ... SP integral derivatives will be done elsewhere.
 Leave Link  702 at Tue Sep 17 15:25:18 2019, MaxMem=   536870912 cpu:         0.1
 (Enter /cluster/apps/gaussian/g09/l703.exe)
 Compute integral first derivatives, UseDBF=F ICtDFT=           0.
 Integral derivatives from FoFJK, PRISM(SPDF).
 Calling FoFJK, ICntrl=      2127 FMM=F ISym2X=0 I1Cent= 0 IOpClX= 0 NMat=1 NMatS=1 NMatT=0.
 FoFJK:  IHMeth= 1 ICntrl=    2127 DoSepK=F KAlg= 0 I1Cent=   0 FoldK=F
 IRaf=         0 NMat=   1 IRICut=       1 DoRegI=T DoRafI=F ISym2E= 0.
 FoFCou: FMM=F IPFlag=           0 FMFlag=      100000 FMFlg1=         800
         NFxFlg=           0 DoJE=F BraDBF=F KetDBF=F FulRan=T
         wScrn=  0.000000 ICntrl=    2127 IOpCl=  0 I1Cent=           0 NGrid=           0
         NMat0=    1 NMatS0=      1 NMatT0=    0 NMatD0=    1 NMtDS0=    0 NMtDT0=    0
 Symmetry not used in FoFCou.
 Leave Link  703 at Tue Sep 17 15:25:24 2019, MaxMem=   536870912 cpu:        13.1
 (Enter /cluster/apps/gaussian/g09/l716.exe)
 Dipole        =-8.23916907D-02-1.95184224D-01 1.13993919D-03
 ***** Axes restored to original set *****
 -------------------------------------------------------------------
 Center     Atomic                   Forces (Hartrees/Bohr)
 Number     Number              X              Y              Z
 -------------------------------------------------------------------
      1        6          -0.099027841    0.043894707   -0.002552309
      2        6           0.151410305    0.127261023   -0.013707353
      3        6          -0.182242936    0.152565671   -0.000110274
      4        6           0.074577887   -0.024527626   -0.002549592
      5        1           0.017249041   -0.029800015    0.000024873
      6        1          -0.020697883   -0.027643274    0.000181509
      7        1           0.020094297    0.080456668   -0.006063826
      8        1          -0.022809237    0.009770070    0.003345318
      9        1           0.072326253   -0.124616429    0.000168550
     10        1          -0.010879885   -0.207360795    0.021263103
 -------------------------------------------------------------------
 Cartesian Forces:  Max     0.207360795 RMS     0.079152830
 Leave Link  716 at Tue Sep 17 15:25:24 2019, MaxMem=   536870912 cpu:         0.1
 (Enter /cluster/apps/gaussian/g09/l103.exe)

 GradGradGradGradGradGradGradGradGradGradGradGradGradGradGradGradGradGrad
 Berny optimization.
 FormGI is forming the generalized inverse of G from B-inverse, IUseBI=4.
 Internal  Forces:  Max     0.193300105 RMS     0.061630663
 Search for a local minimum.
 Step number   1 out of a maximum of   43
 All quantities printed in internal units (Hartrees-Bohrs-Radians)
 RMS Force = .61631D-01 SwitMx=.10000D-02 MixMth= 1
 Mixed Optimization -- RFO/linear search
 Second derivative matrix not updated -- first step.
 ITU=  0
     Eigenvalues ---    0.00230   0.00230   0.00234   0.00237   0.00237
     Eigenvalues ---    0.00237   0.00237   0.05243   0.15993   0.16000
     Eigenvalues ---    0.16000   0.16000   0.16000   0.22000   0.22000
     Eigenvalues ---    0.22504   0.28519   0.28519   0.29619   0.29619
     Eigenvalues ---    0.29619   0.31966   0.59203   0.64532
 RFO step:  Lambda=-2.25009821D-01 EMin= 2.30000000D-03
 Linear search not attempted -- first point.
 Maximum step size (   0.300) exceeded in Quadratic search.
    -- Step size scaled by   0.442
 Iteration  1 RMS(Cart)=  0.08616619 RMS(Int)=  0.00254631
 Iteration  2 RMS(Cart)=  0.00220964 RMS(Int)=  0.00030205
 Iteration  3 RMS(Cart)=  0.00000483 RMS(Int)=  0.00030198
 Iteration  4 RMS(Cart)=  0.00000001 RMS(Int)=  0.00030198
 ITry= 1 IFail=0 DXMaxC= 2.52D-01 DCOld= 1.00D+10 DXMaxT= 3.00D-01 DXLimC= 3.00D+00 Rises=F
 Variable       Old X    -DE/DX   Delta X   Delta X   Delta X     New X
                                 (Linear)    (Quad)   (Total)
    R1        3.06014  -0.15993   0.00000  -0.15713  -0.15713   2.90301
    R2        2.91018  -0.06618   0.00000  -0.05736  -0.05736   2.85282
    R3        2.10906  -0.02137   0.00000  -0.01735  -0.01735   2.09171
    R4        2.15429  -0.01207   0.00000  -0.01024  -0.01024   2.14404
    R5        1.74224   0.19330   0.00000   0.09821   0.09821   1.84045
    R6        2.91018  -0.13061   0.00000  -0.11320  -0.11320   2.79698
    R7        2.15429  -0.03429   0.00000  -0.02909  -0.02909   2.12520
    R8        1.78276   0.14401   0.00000   0.07794   0.07794   1.86070
    R9        2.15429  -0.03443   0.00000  -0.02921  -0.02921   2.12508
    A1        2.19003  -0.00474   0.00000  -0.00470  -0.00471   2.18533
    A2        2.10791  -0.01093   0.00000  -0.01292  -0.01292   2.09498
    A3        1.98525   0.01567   0.00000   0.01763   0.01763   2.00287
    A4        2.10484  -0.03493   0.00000  -0.02502  -0.02485   2.07999
    A5        1.23223   0.10308   0.00000   0.13340   0.13350   1.36573
    A6        2.09440  -0.00309   0.00000  -0.00355  -0.00355   2.09084
    A7        2.12940  -0.00266   0.00000  -0.00305  -0.00305   2.12634
    A8        2.05939   0.00575   0.00000   0.00660   0.00660   2.06600
    A9        2.09440   0.00086   0.00000   0.00085   0.00085   2.09525
   A10        2.09440  -0.00039   0.00000  -0.00038  -0.00038   2.09402
   A11        2.09440  -0.00047   0.00000  -0.00047  -0.00047   2.09392
   A12        3.33707   0.06814   0.00000   0.10837   0.10865   3.44572
   A13        3.19340   0.01550   0.00000   0.02541   0.02382   3.21722
    D1       -3.03217  -0.00545   0.00000  -0.01061  -0.01062  -3.04279
    D2        0.11098  -0.00600   0.00000  -0.01166  -0.01166   0.09932
    D3       -3.14013  -0.00058   0.00000  -0.00113  -0.00113  -3.14125
    D4        0.00147  -0.00033   0.00000  -0.00064  -0.00064   0.00083
    D5        0.00000  -0.00008   0.00000  -0.00016  -0.00016  -0.00016
    D6        3.14159   0.00017   0.00000   0.00032   0.00033  -3.14127
    D7        2.91643   0.00535   0.00000   0.00927   0.00869   2.92512
    D8        3.14159   0.00029   0.00000   0.00057   0.00057  -3.14102
    D9        0.00000   0.00004   0.00000   0.00009   0.00009   0.00009
   D10        0.00000   0.00000   0.00000   0.00000   0.00000   0.00000
   D11        3.14159  -0.00025   0.00000  -0.00049  -0.00049   3.14110
         Item               Value     Threshold  Converged?
 Maximum Force            0.193300     0.000015     NO 
 RMS     Force            0.061631     0.000010     NO 
 Maximum Displacement     0.251662     0.000060     NO 
 RMS     Displacement     0.086991     0.000040     NO 
 Predicted change in Energy=-8.765521D-02
 Lowest energy point so far.  Saving SCF results.
 GradGradGradGradGradGradGradGradGradGradGradGradGradGradGradGradGradGrad

 Leave Link  103 at Tue Sep 17 15:25:24 2019, MaxMem=   536870912 cpu:         0.0
 (Enter /cluster/apps/gaussian/g09/l202.exe)
                          Input orientation:                          
 ---------------------------------------------------------------------
 Center     Atomic      Atomic             Coordinates (Angstroms)
 Number     Number       Type             X           Y           Z
 ---------------------------------------------------------------------
      1          6           0       -1.567776    0.497630    0.004457
      2          6           0       -3.096993    0.351330    0.008912
      3          6           0        0.661292    1.816208   -0.002752
      4          6           0       -0.818776    1.808368    0.001960
      5          1           0       -1.385735    2.779525    0.004153
      6          1           0        1.214954    2.795082   -0.004040
      7          1           0       -4.203422    0.575263   -0.104828
      8          1           0       -0.925029   -0.403517    0.002330
      9          1           0        1.185022    0.982409   -0.004343
     10          1           0       -3.488763   -0.536239    0.094151
 ---------------------------------------------------------------------
                    Distance matrix (angstroms):
                    1          2          3          4          5
     1  C    0.000000
     2  C    1.536205   0.000000
     3  C    2.589873   4.033696   0.000000
     4  C    1.509649   2.704307   1.480096   0.000000
     5  H    2.289145   2.970616   2.262376   1.124542   0.000000
     6  H    3.608593   4.956307   1.124606   2.260465   2.600749
     7  H    2.639053   1.134579   5.021534   3.603856   3.579108
     8  H    1.106885   2.299405   2.728300   2.214435   3.216211
     9  H    2.795172   4.328289   0.984640   2.167361   3.136637
    10  H    2.183374   0.973924   4.771410   3.554505   3.927483
                    6          7          8          9         10
     6  H    0.000000
     7  H    5.856327   0.000000
     8  H    3.848456   3.423062   0.000000
     9  H    1.812921   5.404739   2.524511   0.000000
    10  H    5.764746   1.336326   2.568808   4.915309   0.000000
 Stoichiometry    C4H6
 Framework group  C1[X(C4H6)]
 Deg. of freedom    24
 Full point group                 C1      NOp   1
 RotChk:  IX=2 Diff= 1.29D-02
 Largest Abelian subgroup         C1      NOp   1
 Largest concise Abelian subgroup C1      NOp   1
                         Standard orientation:                         
 ---------------------------------------------------------------------
 Center     Atomic      Atomic             Coordinates (Angstroms)
 Number     Number       Type             X           Y           Z
 ---------------------------------------------------------------------
      1          6           0       -0.570894   -0.400878   -0.003566
      2          6           0       -2.020289    0.108141    0.005269
      3          6           0        2.005776   -0.139697   -0.003723
      4          6           0        0.659107    0.474352    0.006853
      5          1           0        0.552146    1.593677    0.023136
      6          1           0        2.919181    0.516321    0.004658
      7          1           0       -2.930372    0.777220   -0.101284
      8          1           0       -0.365758   -1.488476   -0.019236
      9          1           0        2.131156   -1.116224   -0.017559
     10          1           0       -2.748551   -0.534029    0.081290
 ---------------------------------------------------------------------
 Rotational constants (GHZ):     41.3093976      3.7085902      3.4039611
 Leave Link  202 at Tue Sep 17 15:25:24 2019, MaxMem=   536870912 cpu:         0.0
 (Enter /cluster/apps/gaussian/g09/l301.exe)
 Standard basis: 6-311G(d,p) (5D, 7F)
 Ernie: Thresh=  0.10000D-02 Tol=  0.10000D-05 Strict=F.
 There are   112 symmetry adapted cartesian basis functions of A   symmetry.
 There are   108 symmetry adapted basis functions of A   symmetry.
   108 basis functions,   176 primitive gaussians,   112 cartesian basis functions
    15 alpha electrons       15 beta electrons
       nuclear repulsion energy        97.2413627525 Hartrees.
 IExCor=  402 DFT=T Ex+Corr=B3LYP ExCW=0 ScaHFX=  0.200000
 ScaDFX=  0.800000  0.720000  1.000000  0.810000 ScalE2=  1.000000  1.000000
 IRadAn=      7 IRanWt=     -1 IRanGd=            0 ICorTp=0 IEmpDi=  4
 NAtoms=   10 NActive=   10 NUniq=   10 SFac= 1.00D+00 NAtFMM=   60 NAOKFM=F Big=F
 Integral buffers will be    131072 words long.
 Raffenetti 2 integral format.
 Two-electron integral symmetry is turned on.
 Leave Link  301 at Tue Sep 17 15:25:24 2019, MaxMem=   536870912 cpu:         0.1
 (Enter /cluster/apps/gaussian/g09/l302.exe)
 NPDir=0 NMtPBC=     1 NCelOv=     1 NCel=       1 NClECP=     1 NCelD=      1
         NCelK=      1 NCelE2=     1 NClLst=     1 CellRange=     0.0.
 One-electron integrals computed using PRISM.
 NBasis=   108 RedAO= T EigKep=  3.00D-03  NBF=   108
 NBsUse=   108 1.00D-06 EigRej= -1.00D+00 NBFU=   108
 Precomputing XC quadrature grid using
 IXCGrd= 4 IRadAn=           7 IRanWt=          -1 IRanGd=           0 AccXCQ= 0.00D+00.
 Generated NRdTot=       0 NPtTot=           0 NUsed=           0 NTot=          32
 NSgBfM=   112   112   112   112   112 MxSgAt=    10 MxSgA2=    10.
 Leave Link  302 at Tue Sep 17 15:25:25 2019, MaxMem=   536870912 cpu:         0.6
 (Enter /cluster/apps/gaussian/g09/l303.exe)
 DipDrv:  MaxL=1.
 Leave Link  303 at Tue Sep 17 15:25:25 2019, MaxMem=   536870912 cpu:         0.1
 (Enter /cluster/apps/gaussian/g09/l401.exe)
 Initial guess from the checkpoint file:  "rb3lyp-opt.chk"
 B after Tr=     0.000000    0.000000    0.000000
         Rot=    0.999997   -0.001470    0.000079    0.002129 Ang=  -0.30 deg.
 Guess basis will be translated and rotated to current coordinates.
 JPrj=2 DoOrth=T DoCkMO=T.
 Generating alternative initial guess.
 ExpMin= 1.03D-01 ExpMax= 4.56D+03 ExpMxC= 6.82D+02 IAcc=3 IRadAn=         5 AccDes= 0.00D+00
 Harris functional with IExCor=  402 and IRadAn=       5 diagonalized for initial guess.
 HarFok:  IExCor=  402 AccDes= 0.00D+00 IRadAn=         5 IDoV= 1 UseB2=F ITyADJ=14
 ICtDFT=  3500011 ScaDFX=  1.000000  1.000000  1.000000  1.000000
 FoFCou: FMM=F IPFlag=           0 FMFlag=      100000 FMFlg1=           0
         NFxFlg=           0 DoJE=T BraDBF=F KetDBF=T FulRan=T
         wScrn=  0.000000 ICntrl=     500 IOpCl=  0 I1Cent=   200000004 NGrid=           0
         NMat0=    1 NMatS0=      1 NMatT0=    0 NMatD0=    1 NMtDS0=    0 NMtDT0=    0
 Petite list used in FoFCou.
 Harris En= -155.942257662173    
 Leave Link  401 at Tue Sep 17 15:25:26 2019, MaxMem=   536870912 cpu:         2.2
 (Enter /cluster/apps/gaussian/g09/l502.exe)
 Closed shell SCF:
 Using DIIS extrapolation, IDIIS=    10.
 Integral symmetry usage will be decided dynamically.
 Keep R1 ints in memory in canonical form, NReq=22512639.
 IVT=     4245218 IEndB=     4245218 NGot=   536870912 MDV=   515300254
 LenX=   515300254 LenY=   515287269
 Requested convergence on RMS density matrix=1.00D-08 within2048 cycles.
 Requested convergence on MAX density matrix=1.00D-06.
 Requested convergence on             energy=1.00D-06.
 Level shift goal  0.100 maximum shift  0.100.
 No special actions if energy rises.
 FoFCou: FMM=F IPFlag=           0 FMFlag=           0 FMFlg1=           0
         NFxFlg=           0 DoJE=F BraDBF=F KetDBF=F FulRan=T
         wScrn=  0.000000 ICntrl=     600 IOpCl=  0 I1Cent=           0 NGrid=           0
         NMat0=    1 NMatS0=   5886 NMatT0=    0 NMatD0=    1 NMtDS0=    0 NMtDT0=    0
 Symmetry not used in FoFCou.
 Integral accuracy reduced to 1.0D-05 until final iterations.

 Cycle   1  Pass 0  IDiag  1:
 E= -155.906791460788    
 DIIS: error= 3.52D-03 at cycle   1 NSaved=   1.
 NSaved= 1 IEnMin= 1 EnMin= -155.906791460788     IErMin= 1 ErrMin= 3.52D-03
 ErrMax= 3.52D-03  0.00D+00 EMaxC= 1.00D+00 BMatC= 3.98D-03 BMatP= 3.98D-03
 IDIUse=1 WtCom= 1.00D+00 WtEn= 0.00D+00
 Coeff-Com:  0.100D+01
 Coeff:      0.100D+01
 Gap=     0.644 Goal=     0.100 Shift=    0.000
 GapD=    0.644 DampG=2.000 DampE=1.000 DampFc=2.0000 IDamp=-1.
 RMSDP=6.09D-04 MaxDP=1.01D-02              OVMax= 2.03D-02

 Cycle   2  Pass 0  IDiag  1:
 E= -155.910334960039     Delta-E=       -0.003543499251 Rises=F Damp=F
 DIIS: error= 3.00D-03 at cycle   2 NSaved=   2.
 NSaved= 2 IEnMin= 2 EnMin= -155.910334960039     IErMin= 2 ErrMin= 3.00D-03
 ErrMax= 3.00D-03  0.00D+00 EMaxC= 1.00D+00 BMatC= 6.13D-04 BMatP= 3.98D-03
 IDIUse=1 WtCom= 1.00D+00 WtEn= 0.00D+00
 Coeff-Com:  0.190D+00 0.810D+00
 Coeff:      0.190D+00 0.810D+00
 Gap=     0.150 Goal=     0.100 Shift=    0.000
 GapD=    0.150 DampG=1.000 DampE=1.000 DampFc=1.0000 IDamp=-1.
 RMSDP=3.52D-04 MaxDP=7.76D-03 DE=-3.54D-03 OVMax= 2.27D-02

 Cycle   3  Pass 0  IDiag  1:
 E= -155.909842673349     Delta-E=        0.000492286689 Rises=F Damp=F
 DIIS: error= 4.80D-03 at cycle   3 NSaved=   3.
 NSaved= 3 IEnMin= 2 EnMin= -155.910334960039     IErMin= 2 ErrMin= 3.00D-03
 ErrMax= 4.80D-03  0.00D+00 EMaxC= 1.00D+00 BMatC= 1.01D-03 BMatP= 6.13D-04
 IDIUse=1 WtCom= 1.00D+00 WtEn= 0.00D+00
 Coeff-Com:  0.225D-01 0.560D+00 0.418D+00
 Coeff:      0.225D-01 0.560D+00 0.418D+00
 Gap=     0.150 Goal=   None    Shift=    0.000
 RMSDP=2.38D-04 MaxDP=5.73D-03 DE= 4.92D-04 OVMax= 1.86D-02

 Cycle   4  Pass 0  IDiag  1:
 E= -155.910935675409     Delta-E=       -0.001093002059 Rises=F Damp=F
 DIIS: error= 9.71D-04 at cycle   4 NSaved=   4.
 NSaved= 4 IEnMin= 4 EnMin= -155.910935675409     IErMin= 4 ErrMin= 9.71D-04
 ErrMax= 9.71D-04  0.00D+00 EMaxC= 1.00D+00 BMatC= 6.71D-05 BMatP= 6.13D-04
 IDIUse=1 WtCom= 1.00D+00 WtEn= 0.00D+00
 Coeff-Com: -0.608D-02 0.254D+00 0.259D+00 0.493D+00
 Coeff:     -0.608D-02 0.254D+00 0.259D+00 0.493D+00
 Gap=     0.150 Goal=     0.100 Shift=    0.000
 RMSDP=5.41D-05 MaxDP=1.46D-03 DE=-1.09D-03 OVMax= 4.58D-03

 Cycle   5  Pass 0  IDiag  1:
 E= -155.911004483224     Delta-E=       -0.000068807815 Rises=F Damp=F
 DIIS: error= 2.86D-04 at cycle   5 NSaved=   5.
 NSaved= 5 IEnMin= 5 EnMin= -155.911004483224     IErMin= 5 ErrMin= 2.86D-04
 ErrMax= 2.86D-04  0.00D+00 EMaxC= 1.00D+00 BMatC= 3.34D-06 BMatP= 6.71D-05
 IDIUse=1 WtCom= 1.00D+00 WtEn= 0.00D+00
 Coeff-Com: -0.427D-02 0.936D-01 0.111D+00 0.256D+00 0.543D+00
 Coeff:     -0.427D-02 0.936D-01 0.111D+00 0.256D+00 0.543D+00
 Gap=     0.150 Goal=     0.100 Shift=    0.000
 RMSDP=1.93D-05 MaxDP=5.31D-04 DE=-6.88D-05 OVMax= 2.08D-03

 Cycle   6  Pass 0  IDiag  1:
 E= -155.911005793059     Delta-E=       -0.000001309835 Rises=F Damp=F
 DIIS: error= 2.74D-04 at cycle   6 NSaved=   6.
 NSaved= 6 IEnMin= 6 EnMin= -155.911005793059     IErMin= 6 ErrMin= 2.74D-04
 ErrMax= 2.74D-04  0.00D+00 EMaxC= 1.00D+00 BMatC= 2.18D-06 BMatP= 3.34D-06
 IDIUse=1 WtCom= 1.00D+00 WtEn= 0.00D+00
 Coeff-Com: -0.205D-02 0.251D-01 0.396D-01 0.112D+00 0.439D+00 0.386D+00
 Coeff:     -0.205D-02 0.251D-01 0.396D-01 0.112D+00 0.439D+00 0.386D+00
 Gap=     0.150 Goal=     0.100 Shift=    0.000
 RMSDP=1.05D-05 MaxDP=2.31D-04 DE=-1.31D-06 OVMax= 1.16D-03

 Cycle   7  Pass 0  IDiag  1:
 E= -155.911008282537     Delta-E=       -0.000002489479 Rises=F Damp=F
 DIIS: error= 2.89D-05 at cycle   7 NSaved=   7.
 NSaved= 7 IEnMin= 7 EnMin= -155.911008282537     IErMin= 7 ErrMin= 2.89D-05
 ErrMax= 2.89D-05  0.00D+00 EMaxC= 1.00D+00 BMatC= 4.09D-08 BMatP= 2.18D-06
 IDIUse=1 WtCom= 1.00D+00 WtEn= 0.00D+00
 Coeff-Com: -0.621D-03 0.328D-02 0.912D-02 0.316D-01 0.172D+00 0.192D+00
 Coeff-Com:  0.593D+00
 Coeff:     -0.621D-03 0.328D-02 0.912D-02 0.316D-01 0.172D+00 0.192D+00
 Coeff:      0.593D+00
 Gap=     0.150 Goal=     0.100 Shift=    0.000
 RMSDP=2.02D-06 MaxDP=4.02D-05 DE=-2.49D-06 OVMax= 1.68D-04

 Initial convergence to 1.0D-05 achieved.  Increase integral accuracy.
 Cycle   8  Pass 1  IDiag  1:
 E= -155.911008759983     Delta-E=       -0.000000477446 Rises=F Damp=F
 DIIS: error= 8.70D-06 at cycle   1 NSaved=   1.
 NSaved= 1 IEnMin= 1 EnMin= -155.911008759983     IErMin= 1 ErrMin= 8.70D-06
 ErrMax= 8.70D-06  0.00D+00 EMaxC= 1.00D+00 BMatC= 5.79D-09 BMatP= 5.79D-09
 IDIUse=1 WtCom= 1.00D+00 WtEn= 0.00D+00
 Coeff-Com:  0.100D+01
 Coeff:      0.100D+01
 Gap=     0.150 Goal=     0.100 Shift=    0.000
 RMSDP=2.02D-06 MaxDP=4.02D-05 DE=-4.77D-07 OVMax= 1.31D-04

 Cycle   9  Pass 1  IDiag  1:
 E= -155.911008743541     Delta-E=        0.000000016443 Rises=F Damp=F
 DIIS: error= 2.33D-05 at cycle   2 NSaved=   2.
 NSaved= 2 IEnMin= 1 EnMin= -155.911008759983     IErMin= 1 ErrMin= 8.70D-06
 ErrMax= 2.33D-05  0.00D+00 EMaxC= 1.00D+00 BMatC= 1.88D-08 BMatP= 5.79D-09
 IDIUse=1 WtCom= 1.00D+00 WtEn= 0.00D+00
 Coeff-Com:  0.648D+00 0.352D+00
 Coeff:      0.648D+00 0.352D+00
 Gap=     0.150 Goal=     0.100 Shift=    0.000
 RMSDP=1.15D-06 MaxDP=2.52D-05 DE= 1.64D-08 OVMax= 1.22D-04

 Cycle  10  Pass 1  IDiag  1:
 E= -155.911008764821     Delta-E=       -0.000000021281 Rises=F Damp=F
 DIIS: error= 7.20D-06 at cycle   3 NSaved=   3.
 NSaved= 3 IEnMin= 3 EnMin= -155.911008764821     IErMin= 3 ErrMin= 7.20D-06
 ErrMax= 7.20D-06  0.00D+00 EMaxC= 1.00D+00 BMatC= 1.76D-09 BMatP= 5.79D-09
 IDIUse=1 WtCom= 1.00D+00 WtEn= 0.00D+00
 Coeff-Com:  0.415D+00 0.260D+00 0.325D+00
 Coeff:      0.415D+00 0.260D+00 0.325D+00
 Gap=     0.150 Goal=     0.100 Shift=    0.000
 RMSDP=2.57D-07 MaxDP=5.98D-06 DE=-2.13D-08 OVMax= 2.69D-05

 Cycle  11  Pass 1  IDiag  1:
 E= -155.911008766779     Delta-E=       -0.000000001958 Rises=F Damp=F
 DIIS: error= 3.65D-07 at cycle   4 NSaved=   4.
 NSaved= 4 IEnMin= 4 EnMin= -155.911008766779     IErMin= 4 ErrMin= 3.65D-07
 ErrMax= 3.65D-07  0.00D+00 EMaxC= 1.00D+00 BMatC= 1.35D-11 BMatP= 1.76D-09
 IDIUse=1 WtCom= 1.00D+00 WtEn= 0.00D+00
 Coeff-Com:  0.129D+00 0.885D-01 0.116D+00 0.666D+00
 Coeff:      0.129D+00 0.885D-01 0.116D+00 0.666D+00
 Gap=     0.150 Goal=     0.100 Shift=    0.000
 RMSDP=3.62D-08 MaxDP=7.73D-07 DE=-1.96D-09 OVMax= 2.78D-06

 Cycle  12  Pass 1  IDiag  1:
 E= -155.911008766785     Delta-E=       -0.000000000005 Rises=F Damp=F
 DIIS: error= 3.41D-07 at cycle   5 NSaved=   5.
 NSaved= 5 IEnMin= 5 EnMin= -155.911008766785     IErMin= 5 ErrMin= 3.41D-07
 ErrMax= 3.41D-07  0.00D+00 EMaxC= 1.00D+00 BMatC= 7.01D-12 BMatP= 1.35D-11
 IDIUse=1 WtCom= 1.00D+00 WtEn= 0.00D+00
 Coeff-Com:  0.275D-01 0.232D-01 0.220D-01 0.422D+00 0.506D+00
 Coeff:      0.275D-01 0.232D-01 0.220D-01 0.422D+00 0.506D+00
 Gap=     0.150 Goal=     0.100 Shift=    0.000
 RMSDP=1.93D-08 MaxDP=4.52D-07 DE=-5.40D-12 OVMax= 1.57D-06

 Cycle  13  Pass 1  IDiag  1:
 E= -155.911008766792     Delta-E=       -0.000000000007 Rises=F Damp=F
 DIIS: error= 1.60D-07 at cycle   6 NSaved=   6.
 NSaved= 6 IEnMin= 6 EnMin= -155.911008766792     IErMin= 6 ErrMin= 1.60D-07
 ErrMax= 1.60D-07  0.00D+00 EMaxC= 1.00D+00 BMatC= 1.22D-12 BMatP= 7.01D-12
 IDIUse=1 WtCom= 1.00D+00 WtEn= 0.00D+00
 Coeff-Com: -0.949D-02-0.285D-02-0.140D-01 0.148D+00 0.339D+00 0.539D+00
 Coeff:     -0.949D-02-0.285D-02-0.140D-01 0.148D+00 0.339D+00 0.539D+00
 Gap=     0.150 Goal=     0.100 Shift=    0.000
 RMSDP=8.94D-09 MaxDP=1.76D-07 DE=-7.16D-12 OVMax= 5.63D-07

 SCF Done:  E(RB3LYP) =  -155.911008767     A.U. after   13 cycles
            NFock= 13  Conv=0.89D-08     -V/T= 2.0086
 KE= 1.545824760610D+02 PE=-5.549347683455D+02 EE= 1.471999207652D+02
 Leave Link  502 at Tue Sep 17 15:25:55 2019, MaxMem=   536870912 cpu:        57.4
 (Enter /cluster/apps/gaussian/g09/l701.exe)
 Compute integral first derivatives.
 ... and contract with generalized density number  0.
 Leave Link  701 at Tue Sep 17 15:25:55 2019, MaxMem=   536870912 cpu:         0.2
 (Enter /cluster/apps/gaussian/g09/l702.exe)
 L702 exits ... SP integral derivatives will be done elsewhere.
 Leave Link  702 at Tue Sep 17 15:25:55 2019, MaxMem=   536870912 cpu:         0.1
 (Enter /cluster/apps/gaussian/g09/l703.exe)
 Compute integral first derivatives, UseDBF=F ICtDFT=           0.
 Integral derivatives from FoFJK, PRISM(SPDF).
 Calling FoFJK, ICntrl=      2127 FMM=F ISym2X=0 I1Cent= 0 IOpClX= 0 NMat=1 NMatS=1 NMatT=0.
 FoFJK:  IHMeth= 1 ICntrl=    2127 DoSepK=F KAlg= 0 I1Cent=   0 FoldK=F
 IRaf=         0 NMat=   1 IRICut=       1 DoRegI=T DoRafI=F ISym2E= 0.
 FoFCou: FMM=F IPFlag=           0 FMFlag=      100000 FMFlg1=         800
         NFxFlg=           0 DoJE=F BraDBF=F KetDBF=F FulRan=T
         wScrn=  0.000000 ICntrl=    2127 IOpCl=  0 I1Cent=           0 NGrid=           0
         NMat0=    1 NMatS0=      1 NMatT0=    0 NMatD0=    1 NMtDS0=    0 NMtDT0=    0
 Symmetry not used in FoFCou.
 Leave Link  703 at Tue Sep 17 15:26:02 2019, MaxMem=   536870912 cpu:        13.3
 (Enter /cluster/apps/gaussian/g09/l716.exe)
 Dipole        =-7.46641116D-02-1.28301141D-01-1.47099973D-02
 ***** Axes restored to original set *****
 -------------------------------------------------------------------
 Center     Atomic                   Forces (Hartrees/Bohr)
 Number     Number              X              Y              Z
 -------------------------------------------------------------------
      1        6          -0.098815911    0.037579031   -0.002284952
      2        6           0.105567121    0.058937053   -0.009189370
      3        6          -0.137665996    0.100509468    0.000417444
      4        6           0.069392318   -0.018683191   -0.003156396
      5        1           0.012446265   -0.022581563   -0.000013043
      6        1          -0.014207061   -0.021749461    0.000187728
      7        1           0.030799285    0.064270302   -0.002084921
      8        1          -0.016851822    0.007078661    0.003997258
      9        1           0.045285512   -0.076992495    0.000028300
     10        1           0.004050290   -0.128367807    0.012097953
 -------------------------------------------------------------------
 Cartesian Forces:  Max     0.137665996 RMS     0.055228651
 Leave Link  716 at Tue Sep 17 15:26:02 2019, MaxMem=   536870912 cpu:         0.1
 (Enter /cluster/apps/gaussian/g09/l103.exe)

 GradGradGradGradGradGradGradGradGradGradGradGradGradGradGradGradGradGrad
 Berny optimization.
 Using GEDIIS/GDIIS optimizer.
 FormGI is forming the generalized inverse of G from B-inverse, IUseBI=4.
 Internal  Forces:  Max     0.139284020 RMS     0.045324686
 Search for a local minimum.
 Step number   2 out of a maximum of   43
 All quantities printed in internal units (Hartrees-Bohrs-Radians)
 RMS Force = .45325D-01 SwitMx=.10000D-02 MixMth= 1
 Mixed Optimization -- RFO/linear search
 Update second derivatives using D2CorX and points    1    2
 DE= -8.78D-02 DEPred=-8.77D-02 R= 1.00D+00
 TightC=F SS=  1.41D+00  RLast= 3.01D-01 DXNew= 5.0454D-01 9.0162D-01
 Trust test= 1.00D+00 RLast= 3.01D-01 DXMaxT set to 5.05D-01
 ITU=  1  0
 Use linear search instead of GDIIS.
 Linear search step of   0.600 exceeds DXMaxT=   0.505 but not scaled.
 Quartic linear search produced a step of  2.00000.
 Iteration  1 RMS(Cart)=  0.14134995 RMS(Int)=  0.02455933
 Iteration  2 RMS(Cart)=  0.04207916 RMS(Int)=  0.00166038
 Iteration  3 RMS(Cart)=  0.00035430 RMS(Int)=  0.00162773
 Iteration  4 RMS(Cart)=  0.00000092 RMS(Int)=  0.00162773
 ITry= 1 IFail=0 DXMaxC= 4.94D-01 DCOld= 1.00D+10 DXMaxT= 5.05D-01 DXLimC= 3.00D+00 Rises=F
 Variable       Old X    -DE/DX   Delta X   Delta X   Delta X     New X
                                 (Linear)    (Quad)   (Total)
    R1        2.90301  -0.13928  -0.31426   0.00000  -0.31426   2.58875
    R2        2.85282  -0.04657  -0.11471   0.00000  -0.11471   2.73811
    R3        2.09171  -0.01556  -0.03469   0.00000  -0.03469   2.05702
    R4        2.14404  -0.01714  -0.02049   0.00000  -0.02049   2.12356
    R5        1.84045   0.11642   0.19642   0.00000   0.19642   2.03687
    R6        2.79698  -0.10658  -0.22640   0.00000  -0.22640   2.57057
    R7        2.12520  -0.02593  -0.05818   0.00000  -0.05818   2.06702
    R8        1.86070   0.08929   0.15587   0.00000   0.15587   2.01657
    R9        2.12508  -0.02578  -0.05842   0.00000  -0.05842   2.06665
    A1        2.18533  -0.00125  -0.00941   0.00000  -0.00941   2.17592
    A2        2.09498  -0.00943  -0.02584   0.00000  -0.02584   2.06914
    A3        2.00287   0.01068   0.03525   0.00000   0.03525   2.03812
    A4        2.07999  -0.02111  -0.04970   0.00000  -0.04886   2.03114
    A5        1.36573   0.08229   0.26700   0.00000   0.26738   1.63311
    A6        2.09084  -0.00073  -0.00710   0.00000  -0.00710   2.08374
    A7        2.12634  -0.00206  -0.00610   0.00000  -0.00610   2.12024
    A8        2.06600   0.00279   0.01320   0.00000   0.01320   2.07920
    A9        2.09525   0.00392   0.00170   0.00000   0.00170   2.09695
   A10        2.09402  -0.00264  -0.00076   0.00000  -0.00076   2.09326
   A11        2.09392  -0.00128  -0.00095   0.00000  -0.00095   2.09298
   A12        3.44572   0.06118   0.21731   0.00000   0.21852   3.66424
   A13        3.21722   0.01130   0.04763   0.00000   0.03966   3.25688
    D1       -3.04279  -0.00629  -0.02124   0.00000  -0.02127  -3.06406
    D2        0.09932  -0.00697  -0.02332   0.00000  -0.02329   0.07604
    D3       -3.14125  -0.00068  -0.00226   0.00000  -0.00227   3.13966
    D4        0.00083  -0.00042  -0.00128   0.00000  -0.00130  -0.00047
    D5       -0.00016  -0.00004  -0.00032   0.00000  -0.00030  -0.00046
    D6       -3.14127   0.00022   0.00066   0.00000   0.00067  -3.14059
    D7        2.92512   0.00703   0.01738   0.00000   0.01273   2.93784
    D8       -3.14102   0.00028   0.00114   0.00000   0.00114  -3.13988
    D9        0.00009   0.00001   0.00017   0.00000   0.00017   0.00026
   D10        0.00000   0.00000  -0.00001   0.00000  -0.00001  -0.00001
   D11        3.14110  -0.00027  -0.00098   0.00000  -0.00098   3.14012
         Item               Value     Threshold  Converged?
 Maximum Force            0.139284     0.000015     NO 
 RMS     Force            0.045325     0.000010     NO 
 Maximum Displacement     0.493880     0.000060     NO 
 RMS     Displacement     0.178449     0.000040     NO 
 Predicted change in Energy=-1.048334D-01
 Lowest energy point so far.  Saving SCF results.
 GradGradGradGradGradGradGradGradGradGradGradGradGradGradGradGradGradGrad

 Leave Link  103 at Tue Sep 17 15:26:02 2019, MaxMem=   536870912 cpu:         0.0
 (Enter /cluster/apps/gaussian/g09/l202.exe)
                          Input orientation:                          
 ---------------------------------------------------------------------
 Center     Atomic      Atomic             Coordinates (Angstroms)
 Number     Number       Type             X           Y           Z
 ---------------------------------------------------------------------
      1          6           0       -1.569756    0.512633    0.012336
      2          6           0       -2.933538    0.384004    0.026173
      3          6           0        0.498999    1.796919   -0.007289
      4          6           0       -0.861087    1.776424    0.004147
      5          1           0       -1.420758    2.715979    0.008549
      6          1           0        1.021347    2.757946   -0.011741
      7          1           0       -3.949261    0.836613   -0.135810
      8          1           0       -0.961999   -0.390420    0.008401
      9          1           0        1.069911    0.895362   -0.010457
     10          1           0       -3.319085   -0.619400    0.105690
 ---------------------------------------------------------------------
                    Distance matrix (angstroms):
                    1          2          3          4          5
     1  C    0.000000
     2  C    1.369905   0.000000
     3  C    2.435062   3.712111   0.000000
     4  C    1.448946   2.496873   1.360289   0.000000
     5  H    2.208382   2.779735   2.128472   1.093626   0.000000
     6  H    3.428677   4.612826   1.093819   2.123016   2.442551
     7  H    2.406024   1.123737   4.552552   3.231045   3.153757
     8  H    1.088526   2.118258   2.630440   2.169197   3.140092
     9  H    2.667366   4.036141   1.067125   2.122554   3.085198
    10  H    2.085753   1.077863   4.519860   3.433953   3.838989
                    6          7          8          9         10
     6  H    0.000000
     7  H    5.330465   0.000000
     8  H    3.721059   3.232668   0.000000
     9  H    1.863217   5.021081   2.404631   0.000000
    10  H    5.500873   1.604811   2.370179   4.644489   0.000000
 Stoichiometry    C4H6
 Framework group  C1[X(C4H6)]
 Deg. of freedom    24
 Full point group                 C1      NOp   1
 RotChk:  IX=1 Diff= 3.14D-02
 Largest Abelian subgroup         C1      NOp   1
 Largest concise Abelian subgroup C1      NOp   1
                         Standard orientation:                         
 ---------------------------------------------------------------------
 Center     Atomic      Atomic             Coordinates (Angstroms)
 Number     Number       Type             X           Y           Z
 ---------------------------------------------------------------------
      1          6           0       -0.567644   -0.377148   -0.003767
      2          6           0       -1.849720    0.105201    0.012344
      3          6           0        1.854870   -0.130276   -0.005696
      4          6           0        0.623556    0.447653    0.010101
      5          1           0        0.532664    1.537217    0.034700
      6          1           0        2.745817    0.504153    0.006682
      7          1           0       -2.563131    0.960448   -0.137266
      8          1           0       -0.417532   -1.455016   -0.027358
      9          1           0        1.972523   -1.190653   -0.028364
     10          1           0       -2.636718   -0.628731    0.073716
 ---------------------------------------------------------------------
 Rotational constants (GHZ):     42.0995806      4.3374572      3.9341783
 Leave Link  202 at Tue Sep 17 15:26:02 2019, MaxMem=   536870912 cpu:         0.0
 (Enter /cluster/apps/gaussian/g09/l301.exe)
 Standard basis: 6-311G(d,p) (5D, 7F)
 Ernie: Thresh=  0.10000D-02 Tol=  0.10000D-05 Strict=F.
 There are   112 symmetry adapted cartesian basis functions of A   symmetry.
 There are   108 symmetry adapted basis functions of A   symmetry.
   108 basis functions,   176 primitive gaussians,   112 cartesian basis functions
    15 alpha electrons       15 beta electrons
       nuclear repulsion energy       102.7263518769 Hartrees.
 IExCor=  402 DFT=T Ex+Corr=B3LYP ExCW=0 ScaHFX=  0.200000
 ScaDFX=  0.800000  0.720000  1.000000  0.810000 ScalE2=  1.000000  1.000000
 IRadAn=      7 IRanWt=     -1 IRanGd=            0 ICorTp=0 IEmpDi=  4
 NAtoms=   10 NActive=   10 NUniq=   10 SFac= 1.00D+00 NAtFMM=   60 NAOKFM=F Big=F
 Integral buffers will be    131072 words long.
 Raffenetti 2 integral format.
 Two-electron integral symmetry is turned on.
 Leave Link  301 at Tue Sep 17 15:26:02 2019, MaxMem=   536870912 cpu:         0.1
 (Enter /cluster/apps/gaussian/g09/l302.exe)
 NPDir=0 NMtPBC=     1 NCelOv=     1 NCel=       1 NClECP=     1 NCelD=      1
         NCelK=      1 NCelE2=     1 NClLst=     1 CellRange=     0.0.
 One-electron integrals computed using PRISM.
 NBasis=   108 RedAO= T EigKep=  1.86D-03  NBF=   108
 NBsUse=   108 1.00D-06 EigRej= -1.00D+00 NBFU=   108
 Precomputing XC quadrature grid using
 IXCGrd= 4 IRadAn=           7 IRanWt=          -1 IRanGd=           0 AccXCQ= 0.00D+00.
 Generated NRdTot=       0 NPtTot=           0 NUsed=           0 NTot=          32
 NSgBfM=   112   112   112   112   112 MxSgAt=    10 MxSgA2=    10.
 Leave Link  302 at Tue Sep 17 15:26:02 2019, MaxMem=   536870912 cpu:         0.6
 (Enter /cluster/apps/gaussian/g09/l303.exe)
 DipDrv:  MaxL=1.
 Leave Link  303 at Tue Sep 17 15:26:02 2019, MaxMem=   536870912 cpu:         0.1
 (Enter /cluster/apps/gaussian/g09/l401.exe)
 Initial guess from the checkpoint file:  "rb3lyp-opt.chk"
 B after Tr=     0.000000    0.000000    0.000000
         Rot=    0.999976   -0.003336    0.000268    0.006027 Ang=  -0.79 deg.
 Guess basis will be translated and rotated to current coordinates.
 JPrj=2 DoOrth=T DoCkMO=T.
 Generating alternative initial guess.
 ExpMin= 1.03D-01 ExpMax= 4.56D+03 ExpMxC= 6.82D+02 IAcc=3 IRadAn=         5 AccDes= 0.00D+00
 Harris functional with IExCor=  402 and IRadAn=       5 diagonalized for initial guess.
 HarFok:  IExCor=  402 AccDes= 0.00D+00 IRadAn=         5 IDoV= 1 UseB2=F ITyADJ=14
 ICtDFT=  3500011 ScaDFX=  1.000000  1.000000  1.000000  1.000000
 FoFCou: FMM=F IPFlag=           0 FMFlag=      100000 FMFlg1=           0
         NFxFlg=           0 DoJE=T BraDBF=F KetDBF=T FulRan=T
         wScrn=  0.000000 ICntrl=     500 IOpCl=  0 I1Cent=   200000004 NGrid=           0
         NMat0=    1 NMatS0=      1 NMatT0=    0 NMatD0=    1 NMtDS0=    0 NMtDT0=    0
 Petite list used in FoFCou.
 Harris En= -156.056429693594    
 Leave Link  401 at Tue Sep 17 15:26:04 2019, MaxMem=   536870912 cpu:         2.3
 (Enter /cluster/apps/gaussian/g09/l502.exe)
 Closed shell SCF:
 Using DIIS extrapolation, IDIIS=    10.
 Integral symmetry usage will be decided dynamically.
 Keep R1 ints in memory in canonical form, NReq=22512639.
 IVT=     4245218 IEndB=     4245218 NGot=   536870912 MDV=   515300254
 LenX=   515300254 LenY=   515287269
 Requested convergence on RMS density matrix=1.00D-08 within2048 cycles.
 Requested convergence on MAX density matrix=1.00D-06.
 Requested convergence on             energy=1.00D-06.
 Level shift goal  0.100 maximum shift  0.100.
 No special actions if energy rises.
 FoFCou: FMM=F IPFlag=           0 FMFlag=           0 FMFlg1=           0
         NFxFlg=           0 DoJE=F BraDBF=F KetDBF=F FulRan=T
         wScrn=  0.000000 ICntrl=     600 IOpCl=  0 I1Cent=           0 NGrid=           0
         NMat0=    1 NMatS0=   5886 NMatT0=    0 NMatD0=    1 NMtDS0=    0 NMtDT0=    0
 Symmetry not used in FoFCou.
 Integral accuracy reduced to 1.0D-05 until final iterations.

 Cycle   1  Pass 0  IDiag  1:
 E= -155.994506546508    
 DIIS: error= 9.65D-03 at cycle   1 NSaved=   1.
 NSaved= 1 IEnMin= 1 EnMin= -155.994506546508     IErMin= 1 ErrMin= 9.65D-03
 ErrMax= 9.65D-03  0.00D+00 EMaxC= 1.00D+00 BMatC= 1.64D-02 BMatP= 1.64D-02
 IDIUse=1 WtCom= 1.00D+00 WtEn= 0.00D+00
 Coeff-Com:  0.100D+01
 Coeff:      0.100D+01
 Gap=     0.684 Goal=     0.100 Shift=    0.000
 GapD=    0.684 DampG=2.000 DampE=1.000 DampFc=2.0000 IDamp=-1.
 RMSDP=1.15D-03 MaxDP=1.52D-02              OVMax= 4.03D-02

 Cycle   2  Pass 0  IDiag  1:
 E= -156.008595283404     Delta-E=       -0.014088736896 Rises=F Damp=F
 DIIS: error= 4.58D-03 at cycle   2 NSaved=   2.
 NSaved= 2 IEnMin= 2 EnMin= -156.008595283404     IErMin= 2 ErrMin= 4.58D-03
 ErrMax= 4.58D-03  0.00D+00 EMaxC= 1.00D+00 BMatC= 2.59D-03 BMatP= 1.64D-02
 IDIUse=1 WtCom= 1.00D+00 WtEn= 0.00D+00
 Coeff-Com:  0.198D+00 0.802D+00
 Coeff:      0.198D+00 0.802D+00
 Gap=     0.192 Goal=     0.100 Shift=    0.000
 GapD=    0.192 DampG=1.000 DampE=1.000 DampFc=1.0000 IDamp=-1.
 RMSDP=6.38D-04 MaxDP=1.44D-02 DE=-1.41D-02 OVMax= 3.38D-02

 Cycle   3  Pass 0  IDiag  1:
 E= -156.008452411346     Delta-E=        0.000142872059 Rises=F Damp=F
 DIIS: error= 6.20D-03 at cycle   3 NSaved=   3.
 NSaved= 3 IEnMin= 2 EnMin= -156.008595283404     IErMin= 2 ErrMin= 4.58D-03
 ErrMax= 6.20D-03  0.00D+00 EMaxC= 1.00D+00 BMatC= 2.53D-03 BMatP= 2.59D-03
 IDIUse=1 WtCom= 1.00D+00 WtEn= 0.00D+00
 Coeff-Com:  0.152D-01 0.495D+00 0.489D+00
 Coeff:      0.152D-01 0.495D+00 0.489D+00
 Gap=     0.192 Goal=   None    Shift=    0.000
 RMSDP=4.07D-04 MaxDP=8.52D-03 DE= 1.43D-04 OVMax= 2.60D-02

 Cycle   4  Pass 0  IDiag  1:
 E= -156.011047133116     Delta-E=       -0.002594721770 Rises=F Damp=F
 DIIS: error= 1.72D-03 at cycle   4 NSaved=   4.
 NSaved= 4 IEnMin= 4 EnMin= -156.011047133116     IErMin= 4 ErrMin= 1.72D-03
 ErrMax= 1.72D-03  0.00D+00 EMaxC= 1.00D+00 BMatC= 1.98D-04 BMatP= 2.53D-03
 IDIUse=1 WtCom= 1.00D+00 WtEn= 0.00D+00
 Coeff-Com: -0.566D-02 0.222D+00 0.291D+00 0.493D+00
 Coeff:     -0.566D-02 0.222D+00 0.291D+00 0.493D+00
 Gap=     0.192 Goal=     0.100 Shift=    0.000
 GapD=    0.192 DampG=1.000 DampE=1.000 DampFc=1.0000 IDamp=-1.
 RMSDP=8.84D-05 MaxDP=2.60D-03 DE=-2.59D-03 OVMax= 6.80D-03

 Cycle   5  Pass 0  IDiag  1:
 E= -156.011245754961     Delta-E=       -0.000198621846 Rises=F Damp=F
 DIIS: error= 2.65D-04 at cycle   5 NSaved=   5.
 NSaved= 5 IEnMin= 5 EnMin= -156.011245754961     IErMin= 5 ErrMin= 2.65D-04
 ErrMax= 2.65D-04  0.00D+00 EMaxC= 1.00D+00 BMatC= 6.25D-06 BMatP= 1.98D-04
 IDIUse=1 WtCom= 1.00D+00 WtEn= 0.00D+00
 Coeff-Com: -0.286D-02 0.473D-01 0.845D-01 0.207D+00 0.664D+00
 Coeff:     -0.286D-02 0.473D-01 0.845D-01 0.207D+00 0.664D+00
 Gap=     0.192 Goal=     0.100 Shift=    0.000
 RMSDP=2.28D-05 MaxDP=4.92D-04 DE=-1.99D-04 OVMax= 1.79D-03

 Cycle   6  Pass 0  IDiag  1:
 E= -156.011250475199     Delta-E=       -0.000004720238 Rises=F Damp=F
 DIIS: error= 1.82D-04 at cycle   6 NSaved=   6.
 NSaved= 6 IEnMin= 6 EnMin= -156.011250475199     IErMin= 6 ErrMin= 1.82D-04
 ErrMax= 1.82D-04  0.00D+00 EMaxC= 1.00D+00 BMatC= 1.87D-06 BMatP= 6.25D-06
 IDIUse=1 WtCom= 1.00D+00 WtEn= 0.00D+00
 Coeff-Com: -0.143D-02 0.161D-01 0.365D-01 0.104D+00 0.433D+00 0.412D+00
 Coeff:     -0.143D-02 0.161D-01 0.365D-01 0.104D+00 0.433D+00 0.412D+00
 Gap=     0.192 Goal=     0.100 Shift=    0.000
 RMSDP=1.00D-05 MaxDP=2.23D-04 DE=-4.72D-06 OVMax= 9.71D-04

 Cycle   7  Pass 0  IDiag  1:
 E= -156.011252399488     Delta-E=       -0.000001924289 Rises=F Damp=F
 DIIS: error= 3.60D-05 at cycle   7 NSaved=   7.
 NSaved= 7 IEnMin= 7 EnMin= -156.011252399488     IErMin= 7 ErrMin= 3.60D-05
 ErrMax= 3.60D-05  0.00D+00 EMaxC= 1.00D+00 BMatC= 7.24D-08 BMatP= 1.87D-06
 IDIUse=1 WtCom= 1.00D+00 WtEn= 0.00D+00
 Coeff-Com: -0.280D-03 0.309D-03 0.501D-02 0.203D-01 0.118D+00 0.203D+00
 Coeff-Com:  0.654D+00
 Coeff:     -0.280D-03 0.309D-03 0.501D-02 0.203D-01 0.118D+00 0.203D+00
 Coeff:      0.654D+00
 Gap=     0.192 Goal=     0.100 Shift=    0.000
 RMSDP=2.41D-06 MaxDP=4.49D-05 DE=-1.92D-06 OVMax= 1.99D-04

 Initial convergence to 1.0D-05 achieved.  Increase integral accuracy.
 Cycle   8  Pass 1  IDiag  1:
 E= -156.011252470320     Delta-E=       -0.000000070831 Rises=F Damp=F
 DIIS: error= 7.00D-06 at cycle   1 NSaved=   1.
 NSaved= 1 IEnMin= 1 EnMin= -156.011252470320     IErMin= 1 ErrMin= 7.00D-06
 ErrMax= 7.00D-06  0.00D+00 EMaxC= 1.00D+00 BMatC= 5.91D-09 BMatP= 5.91D-09
 IDIUse=1 WtCom= 1.00D+00 WtEn= 0.00D+00
 Coeff-Com:  0.100D+01
 Coeff:      0.100D+01
 Gap=     0.192 Goal=     0.100 Shift=    0.000
 RMSDP=2.41D-06 MaxDP=4.49D-05 DE=-7.08D-08 OVMax= 9.05D-05

 Cycle   9  Pass 1  IDiag  1:
 E= -156.011252461800     Delta-E=        0.000000008520 Rises=F Damp=F
 DIIS: error= 1.16D-05 at cycle   2 NSaved=   2.
 NSaved= 2 IEnMin= 1 EnMin= -156.011252470320     IErMin= 1 ErrMin= 7.00D-06
 ErrMax= 1.16D-05  0.00D+00 EMaxC= 1.00D+00 BMatC= 1.35D-08 BMatP= 5.91D-09
 IDIUse=1 WtCom= 1.00D+00 WtEn= 0.00D+00
 Coeff-Com:  0.604D+00 0.396D+00
 Coeff:      0.604D+00 0.396D+00
 Gap=     0.192 Goal=     0.100 Shift=    0.000
 RMSDP=8.73D-07 MaxDP=1.56D-05 DE= 8.52D-09 OVMax= 7.02D-05

 Cycle  10  Pass 1  IDiag  1:
 E= -156.011252476356     Delta-E=       -0.000000014556 Rises=F Damp=F
 DIIS: error= 2.71D-06 at cycle   3 NSaved=   3.
 NSaved= 3 IEnMin= 3 EnMin= -156.011252476356     IErMin= 3 ErrMin= 2.71D-06
 ErrMax= 2.71D-06  0.00D+00 EMaxC= 1.00D+00 BMatC= 5.21D-10 BMatP= 5.91D-09
 IDIUse=1 WtCom= 1.00D+00 WtEn= 0.00D+00
 Coeff-Com:  0.367D+00 0.257D+00 0.377D+00
 Coeff:      0.367D+00 0.257D+00 0.377D+00
 Gap=     0.192 Goal=     0.100 Shift=    0.000
 RMSDP=1.49D-07 MaxDP=3.02D-06 DE=-1.46D-08 OVMax= 1.32D-05

 Cycle  11  Pass 1  IDiag  1:
 E= -156.011252476895     Delta-E=       -0.000000000539 Rises=F Damp=F
 DIIS: error= 2.79D-07 at cycle   4 NSaved=   4.
 NSaved= 4 IEnMin= 4 EnMin= -156.011252476895     IErMin= 4 ErrMin= 2.79D-07
 ErrMax= 2.79D-07  0.00D+00 EMaxC= 1.00D+00 BMatC= 5.49D-12 BMatP= 5.21D-10
 IDIUse=1 WtCom= 1.00D+00 WtEn= 0.00D+00
 Coeff-Com:  0.916D-01 0.656D-01 0.133D+00 0.710D+00
 Coeff:      0.916D-01 0.656D-01 0.133D+00 0.710D+00
 Gap=     0.192 Goal=     0.100 Shift=    0.000
 RMSDP=2.31D-08 MaxDP=5.31D-07 DE=-5.39D-10 OVMax= 2.09D-06

 Cycle  12  Pass 1  IDiag  1:
 E= -156.011252476898     Delta-E=       -0.000000000003 Rises=F Damp=F
 DIIS: error= 1.65D-07 at cycle   5 NSaved=   5.
 NSaved= 5 IEnMin= 5 EnMin= -156.011252476898     IErMin= 5 ErrMin= 1.65D-07
 ErrMax= 1.65D-07  0.00D+00 EMaxC= 1.00D+00 BMatC= 2.05D-12 BMatP= 5.49D-12
 IDIUse=1 WtCom= 1.00D+00 WtEn= 0.00D+00
 Coeff-Com:  0.182D-01 0.139D-01 0.368D-01 0.416D+00 0.515D+00
 Coeff:      0.182D-01 0.139D-01 0.368D-01 0.416D+00 0.515D+00
 Gap=     0.192 Goal=     0.100 Shift=    0.000
 RMSDP=1.05D-08 MaxDP=2.76D-07 DE=-2.96D-12 OVMax= 8.14D-07

 Cycle  13  Pass 1  IDiag  1:
 E= -156.011252476900     Delta-E=       -0.000000000002 Rises=F Damp=F
 DIIS: error= 6.12D-08 at cycle   6 NSaved=   6.
 NSaved= 6 IEnMin= 6 EnMin= -156.011252476900     IErMin= 6 ErrMin= 6.12D-08
 ErrMax= 6.12D-08  0.00D+00 EMaxC= 1.00D+00 BMatC= 2.49D-13 BMatP= 2.05D-12
 IDIUse=1 WtCom= 1.00D+00 WtEn= 0.00D+00
 Coeff-Com: -0.456D-02-0.248D-02-0.392D-02 0.112D+00 0.296D+00 0.603D+00
 Coeff:     -0.456D-02-0.248D-02-0.392D-02 0.112D+00 0.296D+00 0.603D+00
 Gap=     0.192 Goal=     0.100 Shift=    0.000
 RMSDP=4.26D-09 MaxDP=8.66D-08 DE=-2.27D-12 OVMax= 2.72D-07

 SCF Done:  E(RB3LYP) =  -156.011252477     A.U. after   13 cycles
            NFock= 13  Conv=0.43D-08     -V/T= 2.0057
 KE= 1.551249775803D+02 PE=-5.665964067793D+02 EE= 1.527338248453D+02
 Leave Link  502 at Tue Sep 17 15:26:32 2019, MaxMem=   536870912 cpu:        57.3
 (Enter /cluster/apps/gaussian/g09/l701.exe)
 Compute integral first derivatives.
 ... and contract with generalized density number  0.
 Leave Link  701 at Tue Sep 17 15:26:33 2019, MaxMem=   536870912 cpu:         0.2
 (Enter /cluster/apps/gaussian/g09/l702.exe)
 L702 exits ... SP integral derivatives will be done elsewhere.
 Leave Link  702 at Tue Sep 17 15:26:33 2019, MaxMem=   536870912 cpu:         0.1
 (Enter /cluster/apps/gaussian/g09/l703.exe)
 Compute integral first derivatives, UseDBF=F ICtDFT=           0.
 Integral derivatives from FoFJK, PRISM(SPDF).
 Calling FoFJK, ICntrl=      2127 FMM=F ISym2X=0 I1Cent= 0 IOpClX= 0 NMat=1 NMatS=1 NMatT=0.
 FoFJK:  IHMeth= 1 ICntrl=    2127 DoSepK=F KAlg= 0 I1Cent=   0 FoldK=F
 IRaf=         0 NMat=   1 IRICut=       1 DoRegI=T DoRafI=F ISym2E= 0.
 FoFCou: FMM=F IPFlag=           0 FMFlag=      100000 FMFlg1=         800
         NFxFlg=           0 DoJE=F BraDBF=F KetDBF=F FulRan=T
         wScrn=  0.000000 ICntrl=    2127 IOpCl=  0 I1Cent=           0 NGrid=           0
         NMat0=    1 NMatS0=      1 NMatT0=    0 NMatD0=    1 NMtDS0=    0 NMtDT0=    0
 Symmetry not used in FoFCou.
 Leave Link  703 at Tue Sep 17 15:26:40 2019, MaxMem=   536870912 cpu:        14.0
 (Enter /cluster/apps/gaussian/g09/l716.exe)
 Dipole        =-3.89504932D-02-2.18799427D-02-3.58799702D-02
 ***** Axes restored to original set *****
 -------------------------------------------------------------------
 Center     Atomic                   Forces (Hartrees/Bohr)
 Number     Number              X              Y              Z
 -------------------------------------------------------------------
      1        6          -0.046373903    0.021093558   -0.000744362
      2        6          -0.010072479   -0.031735559   -0.007034218
      3        6          -0.027280779    0.025278261    0.000369133
      4        6           0.028903517   -0.003368391   -0.004219735
      5        1           0.000922455   -0.006118310    0.000054226
      6        1           0.000410562   -0.007846129    0.000142960
      7        1           0.036694684    0.030987841    0.005711547
      8        1          -0.002973152    0.000866944    0.004769709
      9        1           0.007328154   -0.009275132    0.000074304
     10        1           0.012440942   -0.019883082    0.000876436
 -------------------------------------------------------------------
 Cartesian Forces:  Max     0.046373903 RMS     0.017477996
 Leave Link  716 at Tue Sep 17 15:26:40 2019, MaxMem=   536870912 cpu:         0.1
 (Enter /cluster/apps/gaussian/g09/l103.exe)

[...]
      7        1          -0.000000222    0.000000263    0.000000044
      8        1           0.000000103    0.000000215    0.000000073
      9        1           0.000001438   -0.000002034    0.000000151
     10        1           0.000000110    0.000000466   -0.000000052
 -------------------------------------------------------------------
 Cartesian Forces:  Max     0.000002034 RMS     0.000000715
 Leave Link  716 at Tue Sep 17 15:38:21 2019, MaxMem=   536870912 cpu:         0.1
 (Enter /cluster/apps/gaussian/g09/l103.exe)

 GradGradGradGradGradGradGradGradGradGradGradGradGradGradGradGradGradGrad
 Berny optimization.
 Using GEDIIS/GDIIS optimizer.
 FormGI is forming the generalized inverse of G from B-inverse, IUseBI=4.
 Internal  Forces:  Max     0.000002500 RMS     0.000000489
 Search for a local minimum.
 Step number  24 out of a maximum of   43
 All quantities printed in internal units (Hartrees-Bohrs-Radians)
 RMS Force = .48942D-06 SwitMx=.10000D-02 MixMth= 2
 Mixed Optimization -- En-DIIS/RFO-DIIS
 Swapping is turned off.
 Update second derivatives using D2CorX and points    4    7    6    9    8
                                                     11   10   12   13   15
                                                     14   16   17   18   19
                                                     20   21   22   23   24
 DE= -9.00D-09 DEPred=-8.98D-09 R= 1.00D+00
 Trust test= 1.00D+00 RLast= 1.34D-03 DXMaxT set to 5.00D-02
 ITU=  0 -1  0  0 -1  1  1 -1  0 -1  1 -1  0 -1  0 -1  0 -1  0 -1
 ITU=  1  0  1  0
     Eigenvalues ---    0.00748   0.01416   0.02440   0.02902   0.03611
     Eigenvalues ---    0.03918   0.08735   0.10251   0.12211   0.15377
     Eigenvalues ---    0.15988   0.16040   0.16328   0.21413   0.21716
     Eigenvalues ---    0.29211   0.29572   0.30399   0.32126   0.32551
     Eigenvalues ---    0.37692   0.50666   0.58878   0.62086
 En-DIIS/RFO-DIIS IScMMF=        0 using points:    24   23   22   21   20
 RFO step:  Lambda= 0.00000000D+00.
 NNeg= 0 NP= 5 Switch=  2.50D-03 Rises=F DC=  8.35D-07 SmlDif=  1.00D-05
 RMS Error=  0.7692442186D-06 NUsed= 5 EDIIS=F
 DidBck=F Rises=F RFO-DIIS coefs:    1.08901   -0.04209   -0.04401   -0.00260   -0.00031
 Iteration  1 RMS(Cart)=  0.00000216 RMS(Int)=  0.00000000
 Iteration  2 RMS(Cart)=  0.00000000 RMS(Int)=  0.00000000
 ITry= 1 IFail=0 DXMaxC= 5.76D-06 DCOld= 1.00D+10 DXMaxT= 5.00D-02 DXLimC= 3.00D+00 Rises=F
 Variable       Old X    -DE/DX   Delta X   Delta X   Delta X     New X
                                 (Linear)    (Quad)   (Total)
    R1        2.52635   0.00000   0.00000   0.00000   0.00000   2.52635
    R2        2.75151   0.00000   0.00000   0.00000   0.00000   2.75151
    R3        2.05652   0.00000   0.00000   0.00000   0.00000   2.05652
    R4        2.05143   0.00000   0.00000   0.00000   0.00000   2.05143
    R5        2.04717   0.00000   0.00000   0.00000   0.00000   2.04716
    R6        2.52635   0.00000   0.00000   0.00000   0.00000   2.52635
    R7        2.04716   0.00000   0.00000   0.00000   0.00000   2.04716
    R8        2.05142   0.00000   0.00000   0.00000   0.00001   2.05143
    R9        2.05652   0.00000   0.00000   0.00000   0.00000   2.05652
    A1        2.17026   0.00000   0.00000   0.00000   0.00000   2.17026
    A2        2.08336   0.00000   0.00000   0.00000   0.00000   2.08336
    A3        2.02956   0.00000   0.00000   0.00000   0.00000   2.02956
    A4        2.12430   0.00000   0.00000   0.00000   0.00000   2.12430
    A5        2.03951   0.00000   0.00000   0.00000   0.00000   2.03951
    A6        2.12430   0.00000   0.00000   0.00000   0.00000   2.12430
    A7        2.11938   0.00000   0.00000   0.00000   0.00000   2.11938
    A8        2.03951   0.00000   0.00000   0.00000   0.00000   2.03951
    A9        2.17027   0.00000   0.00000   0.00000   0.00000   2.17026
   A10        2.02956   0.00000   0.00000   0.00000   0.00000   2.02956
   A11        2.08336   0.00000   0.00000   0.00000   0.00000   2.08336
   A12        4.16381   0.00000   0.00000   0.00000   0.00000   4.16381
   A13        3.14159   0.00000   0.00000   0.00000   0.00000   3.14159
    D1       -3.14159   0.00000   0.00000   0.00000   0.00000  -3.14159
    D2        0.00000   0.00000   0.00000   0.00000   0.00000   0.00000
    D3       -3.14159   0.00000   0.00000   0.00000   0.00000  -3.14159
    D4        0.00000   0.00000   0.00000   0.00000   0.00000   0.00000
    D5        0.00000   0.00000   0.00000   0.00000   0.00000   0.00000
    D6        3.14159   0.00000   0.00000   0.00000   0.00000  -3.14159
    D7       -3.14159   0.00000   0.00000   0.00000   0.00000  -3.14159
    D8       -3.14159   0.00000   0.00000   0.00000   0.00000   3.14159
    D9        0.00000   0.00000   0.00000   0.00000   0.00000   0.00000
   D10        0.00000   0.00000   0.00000   0.00000   0.00000   0.00000
   D11       -3.14159   0.00000   0.00000   0.00000   0.00000  -3.14159
         Item               Value     Threshold  Converged?
 Maximum Force            0.000002     0.000015     YES
 RMS     Force            0.000000     0.000010     YES
 Maximum Displacement     0.000006     0.000060     YES
 RMS     Displacement     0.000002     0.000040     YES
 Predicted change in Energy=-9.710893D-12
 Optimization completed.
    -- Stationary point found.
                           ----------------------------
                           !   Optimized Parameters   !
                           ! (Angstroms and Degrees)  !
 --------------------------                            --------------------------
 ! Name  Definition              Value          Derivative Info.                !
 --------------------------------------------------------------------------------
 ! R1    R(1,2)                  1.3369         -DE/DX =    0.0                 !
 ! R2    R(1,4)                  1.456          -DE/DX =    0.0                 !
 ! R3    R(1,8)                  1.0883         -DE/DX =    0.0                 !
 ! R4    R(2,7)                  1.0856         -DE/DX =    0.0                 !
 ! R5    R(2,10)                 1.0833         -DE/DX =    0.0                 !
 ! R6    R(3,4)                  1.3369         -DE/DX =    0.0                 !
 ! R7    R(3,6)                  1.0833         -DE/DX =    0.0                 !
 ! R8    R(3,9)                  1.0856         -DE/DX =    0.0                 !
 ! R9    R(4,5)                  1.0883         -DE/DX =    0.0                 !
 ! A1    A(2,1,4)              124.347          -DE/DX =    0.0                 !
 ! A2    A(2,1,8)              119.3676         -DE/DX =    0.0                 !
 ! A3    A(4,1,8)              116.2854         -DE/DX =    0.0                 !
 ! A4    A(1,2,10)             121.7135         -DE/DX =    0.0                 !
 ! A5    A(7,2,10)             116.8552         -DE/DX =    0.0                 !
 ! A6    A(4,3,6)              121.7134         -DE/DX =    0.0                 !
 ! A7    A(4,3,9)              121.4314         -DE/DX =    0.0                 !
 ! A8    A(6,3,9)              116.8552         -DE/DX =    0.0                 !
 ! A9    A(1,4,3)              124.3471         -DE/DX =    0.0                 !
 ! A10   A(1,4,5)              116.2851         -DE/DX =    0.0                 !
 ! A11   A(3,4,5)              119.3678         -DE/DX =    0.0                 !
 ! A12   L(1,2,7,10,-1)        238.5687         -DE/DX =    0.0                 !
 ! A13   L(1,2,7,10,-2)        180.0            -DE/DX =    0.0                 !
 ! D1    D(4,1,2,10)          -180.0            -DE/DX =    0.0                 !
 ! D2    D(8,1,2,10)             0.0001         -DE/DX =    0.0                 !
 ! D3    D(2,1,4,3)           -179.9999         -DE/DX =    0.0                 !
 ! D4    D(2,1,4,5)              0.0            -DE/DX =    0.0                 !
 ! D5    D(8,1,4,3)              0.0            -DE/DX =    0.0                 !
 ! D6    D(8,1,4,5)           -180.0            -DE/DX =    0.0                 !
 ! D7    D(1,2,7,10)          -180.0            -DE/DX =    0.0                 !
 ! D8    D(6,3,4,1)            180.0            -DE/DX =    0.0                 !
 ! D9    D(6,3,4,5)              0.0001         -DE/DX =    0.0                 !
 ! D10   D(9,3,4,1)              0.0001         -DE/DX =    0.0                 !
 ! D11   D(9,3,4,5)           -179.9999         -DE/DX =    0.0                 !
 --------------------------------------------------------------------------------
 Lowest energy point so far.  Saving SCF results.
 GradGradGradGradGradGradGradGradGradGradGradGradGradGradGradGradGradGrad

 Largest change from initial coordinates is atom    7       0.124 Angstoms.
 Leave Link  103 at Tue Sep 17 15:38:21 2019, MaxMem=   536870912 cpu:         0.0
 (Enter /cluster/apps/gaussian/g09/l202.exe)
                          Input orientation:                          
 ---------------------------------------------------------------------
 Center     Atomic      Atomic             Coordinates (Angstroms)
 Number     Number       Type             X           Y           Z
 ---------------------------------------------------------------------
      1          6           0       -1.593188    0.428689    0.010325
      2          6           0       -2.923694    0.299030   -0.004117
      3          6           0        0.438650    1.834183    0.004117
      4          6           0       -0.891855    1.704521   -0.010323
      5          1           0       -1.514717    2.596435   -0.039379
      6          1           0        0.916281    2.806377   -0.012363
      7          1           0       -3.576660    1.165784   -0.032980
      8          1           0       -0.970330   -0.463229    0.039380
      9          1           0        1.091617    0.967434    0.032977
     10          1           0       -3.401330   -0.673163    0.012364
 ---------------------------------------------------------------------
                    Distance matrix (angstroms):
                    1          2          3          4          5
     1  C    0.000000
     2  C    1.336886   0.000000
     3  C    2.470590   3.696230   0.000000
     4  C    1.456036   2.470589   1.336886   0.000000
     5  H    2.169735   2.695279   2.097275   1.088261   0.000000
     6  H    3.457072   4.586094   1.083312   2.117415   2.440196
     7  H    2.116446   1.085569   4.070730   2.738417   2.509663
     8  H    1.088262   2.097274   2.695287   2.169739   3.108714
     9  H    2.738419   4.070732   1.085566   2.116444   3.074388
    10  H    2.117418   1.083313   4.586098   3.457074   3.775216
                    6          7          8          9         10
     6  H    0.000000
     7  H    4.783146   0.000000
     8  H    3.775222   3.074390   0.000000
     9  H    1.847839   4.672955   2.509675   0.000000
    10  H    5.545230   1.847843   2.440197   4.783154   0.000000
 Stoichiometry    C4H6
 Framework group  C1[X(C4H6)]
 Deg. of freedom    24
 Full point group                 C1      NOp   1
 RotChk:  IX=1 Diff= 2.05D-16
 Largest Abelian subgroup         C1      NOp   1
 Largest concise Abelian subgroup C1      NOp   1
                         Standard orientation:                         
 ---------------------------------------------------------------------
 Center     Atomic      Atomic             Coordinates (Angstroms)
 Number     Number       Type             X           Y           Z
 ---------------------------------------------------------------------
      1          6           0       -0.608665   -0.399423    0.000000
      2          6           0       -1.844863    0.109574    0.000000
      3          6           0        1.844864   -0.109573    0.000000
      4          6           0        0.608665    0.399421    0.000000
      5          1           0        0.476250    1.479596    0.000000
      6          1           0        2.722307    0.525768    0.000000
      7          1           0       -2.015661    1.181623   -0.000002
      8          1           0       -0.476256   -1.479599    0.000000
      9          1           0        2.015666   -1.181618   -0.000002
     10          1           0       -2.722310   -0.525764    0.000000
 ---------------------------------------------------------------------
 Rotational constants (GHZ):     42.4727417      4.4268321      4.0089852
 Leave Link  202 at Tue Sep 17 15:38:21 2019, MaxMem=   536870912 cpu:         0.0
 (Enter /cluster/apps/gaussian/g09/l601.exe)
 Copying SCF densities to generalized density rwf, IOpCl= 0 IROHF=0.

 **********************************************************************

            Population analysis using the SCF density.

 **********************************************************************

 Orbital symmetries:
       Occupied  (A) (A) (A) (A) (A) (A) (A) (A) (A) (A) (A) (A)
                 (A) (A) (A)
       Virtual   (A) (A) (A) (A) (A) (A) (A) (A) (A) (A) (A) (A)
                 (A) (A) (A) (A) (A) (A) (A) (A) (A) (A) (A) (A)
                 (A) (A) (A) (A) (A) (A) (A) (A) (A) (A) (A) (A)
                 (A) (A) (A) (A) (A) (A) (A) (A) (A) (A) (A) (A)
                 (A) (A) (A) (A) (A) (A) (A) (A) (A) (A) (A) (A)
                 (A) (A) (A) (A) (A) (A) (A) (A) (A) (A) (A) (A)
                 (A) (A) (A) (A) (A) (A) (A) (A) (A) (A) (A) (A)
                 (A) (A) (A) (A) (A) (A) (A) (A) (A)
 The electronic state is 1-A.
 Alpha  occ. eigenvalues --  -10.17925 -10.17890 -10.16910 -10.16910  -0.81011
 Alpha  occ. eigenvalues --   -0.73824  -0.60903  -0.55615  -0.47196  -0.46724
 Alpha  occ. eigenvalues --   -0.40010  -0.39047  -0.34992  -0.33009  -0.23960
 Alpha virt. eigenvalues --   -0.03434   0.06182   0.06456   0.06626   0.07138
 Alpha virt. eigenvalues --    0.11869   0.12764   0.14564   0.24496   0.27239
 Alpha virt. eigenvalues --    0.31122   0.32330   0.36048   0.38447   0.38568
 Alpha virt. eigenvalues --    0.38798   0.43858   0.44249   0.45185   0.51159
 Alpha virt. eigenvalues --    0.53174   0.57186   0.60359   0.61556   0.61908
 Alpha virt. eigenvalues --    0.67518   0.69467   0.74770   0.75991   0.81639
 Alpha virt. eigenvalues --    0.82296   0.84636   0.95242   0.98978   1.02899
 Alpha virt. eigenvalues --    1.07555   1.11246   1.13798   1.36167   1.37728
 Alpha virt. eigenvalues --    1.37969   1.45178   1.45895   1.50140   1.51386
 Alpha virt. eigenvalues --    1.55889   1.60481   1.62079   1.68934   1.71237
 Alpha virt. eigenvalues --    1.75773   1.76775   1.80228   1.80696   1.87388
 Alpha virt. eigenvalues --    1.99070   2.02116   2.06250   2.07855   2.12649
 Alpha virt. eigenvalues --    2.16418   2.21635   2.23269   2.23745   2.23777
 Alpha virt. eigenvalues --    2.31108   2.35416   2.53571   2.54580   2.56152
 Alpha virt. eigenvalues --    2.59739   2.63684   2.63694   2.66473   2.68764
 Alpha virt. eigenvalues --    2.72044   2.75853   2.85379   2.88510   3.10147
 Alpha virt. eigenvalues --    3.16615   3.21137   3.44657   3.48818   3.68963
 Alpha virt. eigenvalues --    3.74771   3.91240   4.10826   4.38557  23.67505
 Alpha virt. eigenvalues --   23.80436  24.22812  24.25568
          Condensed to atoms (all electrons):
               1          2          3          4          5          6
     1  C    4.850691   0.625808  -0.065201   0.410775  -0.051762   0.007155
     2  C    0.625808   4.860408   0.003167  -0.065201  -0.003728  -0.000444
     3  C   -0.065201   0.003167   4.860406   0.625808  -0.037333   0.405510
     4  C    0.410775  -0.065201   0.625808   4.850691   0.412669  -0.030085
     5  H   -0.051762  -0.003728  -0.037333   0.412669   0.577481  -0.011081
     6  H    0.007155  -0.000444   0.405510  -0.030085  -0.011081   0.560117
     7  H   -0.042434   0.411454   0.000547  -0.010574   0.004724  -0.000029
     8  H    0.412669  -0.037334  -0.003728  -0.051761   0.006735  -0.000150
     9  H   -0.010574   0.000547   0.411455  -0.042433   0.008044  -0.041151
    10  H   -0.030085   0.405510  -0.000444   0.007155  -0.000150   0.000020
               7          8          9         10
     1  C   -0.042434   0.412669  -0.010574  -0.030085
     2  C    0.411454  -0.037334   0.000547   0.405510
     3  C    0.000547  -0.003728   0.411455  -0.000444
     4  C   -0.010574  -0.051761  -0.042433   0.007155
     5  H    0.004724   0.006735   0.008044  -0.000150
     6  H   -0.000029  -0.000150  -0.041151   0.000020
     7  H    0.566684   0.008044   0.000039  -0.041151
     8  H    0.008044   0.577481   0.004724  -0.011081
     9  H    0.000039   0.004724   0.566683  -0.000029
    10  H   -0.041151  -0.011081  -0.000029   0.560117
 Mulliken charges:
               1
     1  C   -0.107043
     2  C   -0.200188
     3  C   -0.200188
     4  C   -0.107044
     5  H    0.094399
     6  H    0.110137
     7  H    0.102695
     8  H    0.094399
     9  H    0.102695
    10  H    0.110137
 Sum of Mulliken charges =   0.00000
 Mulliken charges with hydrogens summed into heavy atoms:
               1
     1  C   -0.012644
     2  C    0.012644
     3  C    0.012645
     4  C   -0.012644
 Electronic spatial extent (au):  <R**2>=            335.9403
 Charge=              0.0000 electrons
 Dipole moment (field-independent basis, Debye):
    X=              0.0000    Y=              0.0000    Z=              0.0000  Tot=              0.0000
 Quadrupole moment (field-independent basis, Debye-Ang):
   XX=            -23.2527   YY=            -22.9699   ZZ=            -28.7137
   XY=             -0.0108   XZ=              0.0000   YZ=              0.0000
 Traceless Quadrupole moment (field-independent basis, Debye-Ang):
   XX=              1.7261   YY=              2.0089   ZZ=             -3.7349
   XY=             -0.0108   XZ=              0.0000   YZ=              0.0000
 Octapole moment (field-independent basis, Debye-Ang**2):
  XXX=              0.0000  YYY=              0.0000  ZZZ=              0.0000  XYY=              0.0000
  XXY=              0.0000  XXZ=              0.0000  XZZ=              0.0000  YZZ=              0.0000
  YYZ=              0.0000  XYZ=              0.0000
 Hexadecapole moment (field-independent basis, Debye-Ang**3):
 XXXX=           -343.9831 YYYY=            -65.1151 ZZZZ=            -32.6899 XXXY=              6.3140
 XXXZ=              0.0000 YYYX=             -1.6396 YYYZ=              0.0000 ZZZX=              0.0000
 ZZZY=              0.0000 XXYY=            -67.9074 XXZZ=            -75.1462 YYZZ=            -18.3527
 XXYZ=              0.0000 YYXZ=              0.0000 ZZXY=             -0.1841
 N-N= 1.037687040832D+02 E-N=-5.688678067386D+02  KE= 1.552999862474D+02
 No NMR shielding tensors so no spin-rotation constants.
 Leave Link  601 at Tue Sep 17 15:38:21 2019, MaxMem=   536870912 cpu:         0.2
 (Enter /cluster/apps/gaussian/g09/l9999.exe)
 1\1\GINC-EU-C7-065-11\FOpt\RB3LYP\6-311G(d,p)\C4H6\CARLOP\17-Sep-2019\
 0\\#p b3lyp/6-311G(d,p) scf=(maxcycle=2048,cdiis,conver=8) symmetry=(o
 n,loose) int=superfine opt=tight\\benz\\0,1\C,-1.5931879474,0.42868870
 14,0.0103248178\C,-2.9236936714,0.2990298256,-0.0041168183\C,0.4386496
 121,1.8341826855,0.0041169122\C,-0.8918552695,1.7045206016,-0.01032322
 38\H,-1.5147174725,2.5964346467,-0.0393789588\H,0.9162808554,2.8063769
 233,-0.0123627654\H,-3.57665969,1.1657839543,-0.0329800792\H,-0.970330
 3055,-0.4632292554,0.0393797601\H,1.0916173723,0.9674338804,0.03297665
 98\H,-3.4013302135,-0.6731631034,0.0123636956\\Version=ES64L-G09RevD.0
 1\State=1-A\HF=-156.0385056\RMSD=4.263e-09\RMSF=7.153e-07\Dipole=-0.00
 00001,-0.0000009,-0.0000006\Quadrupole=1.3353584,1.4384115,-2.7737699,
 -0.0902403,0.0561219,-0.0998398\PG=C01 [X(C4H6)]\\@


 REALITY IS FOR PEOPLE WHO CAN'T FACE SCIENCE FICTION.
 Job cpu time:       0 days  0 hours 26 minutes 58.8 seconds.
 File lengths (MBytes):  RWF=      7 Int=      0 D2E=      0 Chk=      2 Scr=      1
 Normal termination of Gaussian 09 at Tue Sep 17 15:38:21 2019.
