 Entering Gaussian System, Link 0=g09
 Input=g.com
 Output=g.log
 Initial command:
 /cluster/apps/gaussian/g09/l1.exe "/scratch/98689163.tmpdir/Gau-31865.inp" -scrdir="/scratch/98689163.tmpdir/"
 Entering Link 1 = /cluster/apps/gaussian/g09/l1.exe PID=     31872.
  
 Copyright (c) 1988,1990,1992,1993,1995,1998,2003,2009,2013,
            Gaussian, Inc.  All Rights Reserved.
  
 This is part of the Gaussian(R) 09 program.  It is based on
 the Gaussian(R) 03 system (copyright 2003, Gaussian, Inc.),
 the Gaussian(R) 98 system (copyright 1998, Gaussian, Inc.),
 the Gaussian(R) 94 system (copyright 1995, Gaussian, Inc.),
 the Gaussian 92(TM) system (copyright 1992, Gaussian, Inc.),
 the Gaussian 90(TM) system (copyright 1990, Gaussian, Inc.),
 the Gaussian 88(TM) system (copyright 1988, Gaussian, Inc.),
 the Gaussian 86(TM) system (copyright 1986, Carnegie Mellon
 University), and the Gaussian 82(TM) system (copyright 1983,
 Carnegie Mellon University). Gaussian is a federally registered
 trademark of Gaussian, Inc.
  
 This software contains proprietary and confidential information,
 including trade secrets, belonging to Gaussian, Inc.
  
 This software is provided under written license and may be
 used, copied, transmitted, or stored only in accord with that
 written license.
  
 The following legend is applicable only to US Government
 contracts under FAR:
  
                    RESTRICTED RIGHTS LEGEND
  
 Use, reproduction and disclosure by the US Government is
 subject to restrictions as set forth in subparagraphs (a)
 and (c) of the Commercial Computer Software - Restricted
 Rights clause in FAR 52.227-19.
  
 Gaussian, Inc.
 340 Quinnipiac St., Bldg. 40, Wallingford CT 06492
  
  
 ---------------------------------------------------------------
 Warning -- This program may not be used in any manner that
 competes with the business of Gaussian, Inc. or will provide
 assistance to any competitor of Gaussian, Inc.  The licensee
 of this program is prohibited from giving any competitor of
 Gaussian, Inc. access to this program.  By using this program,
 the user acknowledges that Gaussian, Inc. is engaged in the
 business of creating and licensing software in the field of
 computational chemistry and represents and warrants to the
 licensee that it is not a competitor of Gaussian, Inc. and that
 it will not use this program in any manner prohibited above.
 ---------------------------------------------------------------
  

 Cite this work as:
 Gaussian 09, Revision D.01,
 M. J. Frisch, G. W. Trucks, H. B. Schlegel, G. E. Scuseria, 
 M. A. Robb, J. R. Cheeseman, G. Scalmani, V. Barone, B. Mennucci, 
 G. A. Petersson, H. Nakatsuji, M. Caricato, X. Li, H. P. Hratchian, 
 A. F. Izmaylov, J. Bloino, G. Zheng, J. L. Sonnenberg, M. Hada, 
 M. Ehara, K. Toyota, R. Fukuda, J. Hasegawa, M. Ishida, T. Nakajima, 
 Y. Honda, O. Kitao, H. Nakai, T. Vreven, J. A. Montgomery, Jr., 
 J. E. Peralta, F. Ogliaro, M. Bearpark, J. J. Heyd, E. Brothers, 
 K. N. Kudin, V. N. Staroverov, T. Keith, R. Kobayashi, J. Normand, 
 K. Raghavachari, A. Rendell, J. C. Burant, S. S. Iyengar, J. Tomasi, 
 M. Cossi, N. Rega, J. M. Millam, M. Klene, J. E. Knox, J. B. Cross, 
 V. Bakken, C. Adamo, J. Jaramillo, R. Gomperts, R. E. Stratmann, 
 O. Yazyev, A. J. Austin, R. Cammi, C. Pomelli, J. W. Ochterski, 
 R. L. Martin, K. Morokuma, V. G. Zakrzewski, G. A. Voth, 
 P. Salvador, J. J. Dannenberg, S. Dapprich, A. D. Daniels, 
 O. Farkas, J. B. Foresman, J. V. Ortiz, J. Cioslowski, 
 and D. J. Fox, Gaussian, Inc., Wallingford CT, 2013.
 
 ******************************************
 Gaussian 09:  ES64L-G09RevD.01 24-Apr-2013
                22-Aug-2019 
 ******************************************
 %NProcShared=4
 Will use up to    4 processors via shared memory.
 %Mem=8192MB
 %chk=rb3lyp-opt.chk
 ----------------------------------------------------------------------
 #p b3lyp/6-311G(d,p) scf=(maxcycle=2048,cdiis,conver=8) symmetry=(on,l
 oose) int=superfine opt=tight
 ----------------------------------------------------------------------
 1/7=10,14=-1,18=20,19=15,26=5,38=1/1,3;
 2/9=110,12=2,15=-1,17=4,18=3,40=1/2;
 3/5=4,6=6,7=101,11=2,16=1,25=1,30=1,71=1,74=-5,75=-7/1,2,3;
 4//1;
 5/5=2,6=8,7=2048,22=12,38=5/2;
 6/7=2,8=2,9=2,10=2,28=1/1;
 7/30=1/1,2,3,16;
 1/7=10,14=-1,18=20,19=15,26=5/3(2);
 2/9=110/2;
 99//99;
 2/9=110/2;
 3/5=4,6=6,7=101,11=2,16=1,25=1,30=1,71=1,74=-5,75=-7/1,2,3;
 4/5=5,16=3,69=1/1;
 5/5=2,6=8,7=2048,22=12,38=5/2;
 7/30=1/1,2,3,16;
 1/7=10,14=-1,18=20,19=15,26=5/3(-5);
 2/9=110/2;
 6/7=2,8=2,9=2,10=2,19=2,28=1/1;
 99/9=1/99;
 Leave Link    1 at Thu Aug 22 16:08:17 2019, MaxMem=  1073741824 cpu:         0.3
 (Enter /cluster/apps/gaussian/g09/l101.exe)
 ----
 benz
 ----
 Symbolic Z-matrix:
 Charge =  0 Multiplicity = 1
 C                    -1.56952   0.49114   0. 
 C                    -0.79952  -0.84254   0. 
 C                     0.74048  -0.84254   0. 
 C                     1.51048   0.49114   0. 
 C                     0.74048   1.82482   0. 
 C                    -0.79952   1.82482   0. 
 H                    -1.36952   2.81209   0. 
 H                     1.31048   2.81209   0. 
 H                     2.65048   0.49114   0. 
 H                     1.31048  -1.82981   0. 
 H                    -1.36952  -1.82981   0. 
 H                    -2.70952   0.49114   0. 
 
 NAtoms=     12 NQM=       12 NQMF=       0 NMMI=      0 NMMIF=      0
                NMic=       0 NMicF=      0.
                    Isotopes and Nuclear Properties:
 (Nuclear quadrupole moments (NQMom) in fm**2, nuclear magnetic moments (NMagM)
  in nuclear magnetons)

  Atom         1           2           3           4           5           6           7           8           9          10
 IAtWgt=          12          12          12          12          12          12           1           1           1           1
 AtmWgt=  12.0000000  12.0000000  12.0000000  12.0000000  12.0000000  12.0000000   1.0078250   1.0078250   1.0078250   1.0078250
 NucSpn=           0           0           0           0           0           0           1           1           1           1
 AtZEff=   0.0000000   0.0000000   0.0000000   0.0000000   0.0000000   0.0000000   0.0000000   0.0000000   0.0000000   0.0000000
 NQMom=    0.0000000   0.0000000   0.0000000   0.0000000   0.0000000   0.0000000   0.0000000   0.0000000   0.0000000   0.0000000
 NMagM=    0.0000000   0.0000000   0.0000000   0.0000000   0.0000000   0.0000000   2.7928460   2.7928460   2.7928460   2.7928460
 AtZNuc=   6.0000000   6.0000000   6.0000000   6.0000000   6.0000000   6.0000000   1.0000000   1.0000000   1.0000000   1.0000000

  Atom        11          12
 IAtWgt=           1           1
 AtmWgt=   1.0078250   1.0078250
 NucSpn=           1           1
 AtZEff=   0.0000000   0.0000000
 NQMom=    0.0000000   0.0000000
 NMagM=    2.7928460   2.7928460
 AtZNuc=   1.0000000   1.0000000
 Leave Link  101 at Thu Aug 22 16:08:17 2019, MaxMem=  1073741824 cpu:         1.1
 (Enter /cluster/apps/gaussian/g09/l103.exe)

 GradGradGradGradGradGradGradGradGradGradGradGradGradGradGradGradGradGrad
 Berny optimization.
 Initialization pass.
                           ----------------------------
                           !    Initial Parameters    !
                           ! (Angstroms and Degrees)  !
 --------------------------                            --------------------------
 ! Name  Definition              Value          Derivative Info.                !
 --------------------------------------------------------------------------------
 ! R1    R(1,2)                  1.54           estimate D2E/DX2                !
 ! R2    R(1,6)                  1.54           estimate D2E/DX2                !
 ! R3    R(1,12)                 1.14           estimate D2E/DX2                !
 ! R4    R(2,3)                  1.54           estimate D2E/DX2                !
 ! R5    R(2,11)                 1.14           estimate D2E/DX2                !
 ! R6    R(3,4)                  1.54           estimate D2E/DX2                !
 ! R7    R(3,10)                 1.14           estimate D2E/DX2                !
 ! R8    R(4,5)                  1.54           estimate D2E/DX2                !
 ! R9    R(4,9)                  1.14           estimate D2E/DX2                !
 ! R10   R(5,6)                  1.54           estimate D2E/DX2                !
 ! R11   R(5,8)                  1.14           estimate D2E/DX2                !
 ! R12   R(6,7)                  1.14           estimate D2E/DX2                !
 ! A1    A(2,1,6)              120.0            estimate D2E/DX2                !
 ! A2    A(2,1,12)             120.0            estimate D2E/DX2                !
 ! A3    A(6,1,12)             120.0            estimate D2E/DX2                !
 ! A4    A(1,2,3)              120.0            estimate D2E/DX2                !
 ! A5    A(1,2,11)             120.0            estimate D2E/DX2                !
 ! A6    A(3,2,11)             120.0            estimate D2E/DX2                !
 ! A7    A(2,3,4)              120.0            estimate D2E/DX2                !
 ! A8    A(2,3,10)             120.0            estimate D2E/DX2                !
 ! A9    A(4,3,10)             120.0            estimate D2E/DX2                !
 ! A10   A(3,4,5)              120.0            estimate D2E/DX2                !
 ! A11   A(3,4,9)              120.0            estimate D2E/DX2                !
 ! A12   A(5,4,9)              120.0            estimate D2E/DX2                !
 ! A13   A(4,5,6)              120.0            estimate D2E/DX2                !
 ! A14   A(4,5,8)              120.0            estimate D2E/DX2                !
 ! A15   A(6,5,8)              120.0            estimate D2E/DX2                !
 ! A16   A(1,6,5)              120.0            estimate D2E/DX2                !
 ! A17   A(1,6,7)              120.0            estimate D2E/DX2                !
 ! A18   A(5,6,7)              120.0            estimate D2E/DX2                !
 ! D1    D(6,1,2,3)              0.0            estimate D2E/DX2                !
 ! D2    D(6,1,2,11)           180.0            estimate D2E/DX2                !
 ! D3    D(12,1,2,3)           180.0            estimate D2E/DX2                !
 ! D4    D(12,1,2,11)            0.0            estimate D2E/DX2                !
 ! D5    D(2,1,6,5)              0.0            estimate D2E/DX2                !
 ! D6    D(2,1,6,7)            180.0            estimate D2E/DX2                !
 ! D7    D(12,1,6,5)           180.0            estimate D2E/DX2                !
 ! D8    D(12,1,6,7)             0.0            estimate D2E/DX2                !
 ! D9    D(1,2,3,4)              0.0            estimate D2E/DX2                !
 ! D10   D(1,2,3,10)           180.0            estimate D2E/DX2                !
 ! D11   D(11,2,3,4)           180.0            estimate D2E/DX2                !
 ! D12   D(11,2,3,10)            0.0            estimate D2E/DX2                !
 ! D13   D(2,3,4,5)              0.0            estimate D2E/DX2                !
 ! D14   D(2,3,4,9)            180.0            estimate D2E/DX2                !
 ! D15   D(10,3,4,5)           180.0            estimate D2E/DX2                !
 ! D16   D(10,3,4,9)             0.0            estimate D2E/DX2                !
 ! D17   D(3,4,5,6)              0.0            estimate D2E/DX2                !
 ! D18   D(3,4,5,8)            180.0            estimate D2E/DX2                !
 ! D19   D(9,4,5,6)            180.0            estimate D2E/DX2                !
 ! D20   D(9,4,5,8)              0.0            estimate D2E/DX2                !
 ! D21   D(4,5,6,1)              0.0            estimate D2E/DX2                !
 ! D22   D(4,5,6,7)            180.0            estimate D2E/DX2                !
 ! D23   D(8,5,6,1)            180.0            estimate D2E/DX2                !
 ! D24   D(8,5,6,7)              0.0            estimate D2E/DX2                !
 --------------------------------------------------------------------------------
 Trust Radius=3.00D-01 FncErr=1.00D-07 GrdErr=1.00D-07
 Number of steps in this run=     64 maximum allowed number of steps=    100.
 GradGradGradGradGradGradGradGradGradGradGradGradGradGradGradGradGradGrad

 Leave Link  103 at Thu Aug 22 16:08:17 2019, MaxMem=  1073741824 cpu:         0.0
 (Enter /cluster/apps/gaussian/g09/l202.exe)
                          Input orientation:                          
 ---------------------------------------------------------------------
 Center     Atomic      Atomic             Coordinates (Angstroms)
 Number     Number       Type             X           Y           Z
 ---------------------------------------------------------------------
      1          6           0       -1.569523    0.491143    0.000000
      2          6           0       -0.799523   -0.842536    0.000000
      3          6           0        0.740477   -0.842536    0.000000
      4          6           0        1.510477    0.491143    0.000000
      5          6           0        0.740477    1.824822    0.000000
      6          6           0       -0.799523    1.824822    0.000000
      7          1           0       -1.369523    2.812091    0.000000
      8          1           0        1.310477    2.812091    0.000000
      9          1           0        2.650477    0.491143    0.000000
     10          1           0        1.310477   -1.829805    0.000000
     11          1           0       -1.369523   -1.829805    0.000000
     12          1           0       -2.709523    0.491143    0.000000
 ---------------------------------------------------------------------
                    Distance matrix (angstroms):
                    1          2          3          4          5
     1  C    0.000000
     2  C    1.540000   0.000000
     3  C    2.667358   1.540000   0.000000
     4  C    3.080000   2.667358   1.540000   0.000000
     5  C    2.667358   3.080000   2.667358   1.540000   0.000000
     6  C    1.540000   2.667358   3.080000   2.667358   1.540000
     7  H    2.329549   3.698810   4.220000   3.698811   2.329549
     8  H    3.698811   4.220000   3.698810   2.329549   1.140000
     9  H    4.220000   3.698811   2.329549   1.140000   2.329549
    10  H    3.698811   2.329549   1.140000   2.329549   3.698810
    11  H    2.329549   1.140000   2.329549   3.698811   4.220000
    12  H    1.140000   2.329549   3.698811   4.220000   3.698811
                    6          7          8          9         10
     6  C    0.000000
     7  H    1.140000   0.000000
     8  H    2.329549   2.680000   0.000000
     9  H    3.698811   4.641896   2.680000   0.000000
    10  H    4.220000   5.360000   4.641896   2.680000   0.000000
    11  H    3.698810   4.641896   5.360000   4.641896   2.680000
    12  H    2.329549   2.680000   4.641896   5.360000   4.641896
                   11         12
    11  H    0.000000
    12  H    2.680000   0.000000
 Stoichiometry    C6H6
 Framework group  D6H[3C2'(HC.CH)]
 Deg. of freedom     2
 Full point group                 D6H     NOp  24
 Largest Abelian subgroup         D2H     NOp   8
 Largest concise Abelian subgroup D2      NOp   4
                         Standard orientation:                         
 ---------------------------------------------------------------------
 Center     Atomic      Atomic             Coordinates (Angstroms)
 Number     Number       Type             X           Y           Z
 ---------------------------------------------------------------------
      1          6           0        0.000000    1.540000    0.000000
      2          6           0        1.333679    0.770000    0.000000
      3          6           0        1.333679   -0.770000    0.000000
      4          6           0        0.000000   -1.540000    0.000000
      5          6           0       -1.333679   -0.770000    0.000000
      6          6           0       -1.333679    0.770000    0.000000
      7          1           0       -2.320948    1.340000    0.000000
      8          1           0       -2.320948   -1.340000    0.000000
      9          1           0        0.000000   -2.680000    0.000000
     10          1           0        2.320948   -1.340000    0.000000
     11          1           0        2.320948    1.340000    0.000000
     12          1           0        0.000000    2.680000    0.000000
 ---------------------------------------------------------------------
 Rotational constants (GHZ):      4.7190487      4.7190487      2.3595244
 Leave Link  202 at Thu Aug 22 16:08:17 2019, MaxMem=  1073741824 cpu:         0.0
 (Enter /cluster/apps/gaussian/g09/l301.exe)
 Standard basis: 6-311G(d,p) (5D, 7F)
 Ernie: Thresh=  0.10000D-02 Tol=  0.10000D-05 Strict=F.
 There are    33 symmetry adapted cartesian basis functions of AG  symmetry.
 There are    24 symmetry adapted cartesian basis functions of B1G symmetry.
 There are     7 symmetry adapted cartesian basis functions of B2G symmetry.
 There are    11 symmetry adapted cartesian basis functions of B3G symmetry.
 There are     7 symmetry adapted cartesian basis functions of AU  symmetry.
 There are    11 symmetry adapted cartesian basis functions of B1U symmetry.
 There are    33 symmetry adapted cartesian basis functions of B2U symmetry.
 There are    24 symmetry adapted cartesian basis functions of B3U symmetry.
 There are    31 symmetry adapted basis functions of AG  symmetry.
 There are    23 symmetry adapted basis functions of B1G symmetry.
 There are     7 symmetry adapted basis functions of B2G symmetry.
 There are    11 symmetry adapted basis functions of B3G symmetry.
 There are     7 symmetry adapted basis functions of AU  symmetry.
 There are    11 symmetry adapted basis functions of B1U symmetry.
 There are    31 symmetry adapted basis functions of B2U symmetry.
 There are    23 symmetry adapted basis functions of B3U symmetry.
   144 basis functions,   240 primitive gaussians,   150 cartesian basis functions
    21 alpha electrons       21 beta electrons
       nuclear repulsion energy       185.6763738346 Hartrees.
 IExCor=  402 DFT=T Ex+Corr=B3LYP ExCW=0 ScaHFX=  0.200000
 ScaDFX=  0.800000  0.720000  1.000000  0.810000 ScalE2=  1.000000  1.000000
 IRadAn=      7 IRanWt=     -1 IRanGd=            0 ICorTp=0 IEmpDi=  4
 NAtoms=   12 NActive=   12 NUniq=    2 SFac= 4.00D+00 NAtFMM=   60 NAOKFM=F Big=F
 Integral buffers will be    131072 words long.
 Raffenetti 2 integral format.
 Two-electron integral symmetry is turned on.
 Leave Link  301 at Thu Aug 22 16:08:17 2019, MaxMem=  1073741824 cpu:         0.1
 (Enter /cluster/apps/gaussian/g09/l302.exe)
 NPDir=0 NMtPBC=     1 NCelOv=     1 NCel=       1 NClECP=     1 NCelD=      1
         NCelK=      1 NCelE2=     1 NClLst=     1 CellRange=     0.0.
 One-electron integrals computed using PRISM.
 One-electron integral symmetry used in STVInt
 NBasis=   144 RedAO= T EigKep=  4.82D-04  NBF=    31    23     7    11     7    11    31    23
 NBsUse=   144 1.00D-06 EigRej= -1.00D+00 NBFU=    31    23     7    11     7    11    31    23
 Precomputing XC quadrature grid using
 IXCGrd= 4 IRadAn=           7 IRanWt=          -1 IRanGd=           0 AccXCQ= 0.00D+00.
 Generated NRdTot=       0 NPtTot=           0 NUsed=           0 NTot=          32
 NSgBfM=   150   150   150   150   150 MxSgAt=    12 MxSgA2=    12.
 Leave Link  302 at Thu Aug 22 16:08:18 2019, MaxMem=  1073741824 cpu:         1.1
 (Enter /cluster/apps/gaussian/g09/l303.exe)
 DipDrv:  MaxL=1.
 Leave Link  303 at Thu Aug 22 16:08:18 2019, MaxMem=  1073741824 cpu:         0.1
 (Enter /cluster/apps/gaussian/g09/l401.exe)
 ExpMin= 1.03D-01 ExpMax= 4.56D+03 ExpMxC= 6.82D+02 IAcc=3 IRadAn=         7 AccDes= 0.00D+00
 Harris functional with IExCor=  402 and IRadAn=       7 diagonalized for initial guess.
 HarFok:  IExCor=  402 AccDes= 0.00D+00 IRadAn=         7 IDoV= 1 UseB2=F ITyADJ=14
 ICtDFT=  3500011 ScaDFX=  1.000000  1.000000  1.000000  1.000000
 FoFCou: FMM=F IPFlag=           0 FMFlag=      100000 FMFlg1=           0
         NFxFlg=           0 DoJE=T BraDBF=F KetDBF=T FulRan=T
         wScrn=  0.000000 ICntrl=     500 IOpCl=  0 I1Cent=   200000004 NGrid=           0
         NMat0=    1 NMatS0=      1 NMatT0=    0 NMatD0=    1 NMtDS0=    0 NMtDT0=    0
 Petite list used in FoFCou.
 Harris En= -232.179429730332    
 JPrj=0 DoOrth=F DoCkMO=F.
 Initial guess orbital symmetries:
       Occupied  (A1G) (E1U) (E1U) (E2G) (E2G) (B1U) (A1G) (E1U)
                 (E1U) (E2G) (E2G) (A1G) (B1U) (B2U) (E1U) (E1U)
                 (E2G) (E2G) (A2U) (E1G) (E1G)
       Virtual   (E2U) (E2U) (B2G) (A1G) (E2G) (E2G) (E1U) (E1U)
                 (B1U) (E1U) (E1U) (E2G) (E2G) (A1G) (B1U) (A2G)
                 (E1U) (E1U) (B2U) (E2G) (E2G) (A2U) (A1G) (E1G)
                 (E1G) (E2U) (E2U) (B1U) (E2G) (E2G) (B2G) (E1U)
                 (E1U) (A1G) (E1U) (E1U) (E2G) (E2G) (A2G) (B1U)
                 (E1U) (E1U) (A2U) (B1G) (E2G) (E2G) (E1G) (E1G)
                 (E2U) (E2U) (B1U) (A1G) (B2U) (E1U) (E1U) (A1G)
                 (E2G) (E2G) (E2U) (E2U) (B2G) (E1U) (E1U) (E2G)
                 (E2G) (A2U) (E1G) (E1G) (B2U) (B1U) (E1G) (E1G)
                 (E1U) (E1U) (E2G) (E2G) (A2G) (E2U) (E2U) (A1U)
                 (B2G) (E1U) (E1U) (E2G) (E2G) (A1G) (E1U) (E1U)
                 (A2U) (B1U) (A1G) (E2G) (E2G) (E1U) (E1U) (A2G)
                 (E1G) (E1G) (E2G) (E2G) (B2U) (B1U) (E2U) (E2U)
                 (B2G) (E2G) (E2G) (B1U) (A1G) (E1U) (E1U) (E2G)
                 (E2G) (B1U) (E1U) (E1U) (A2G) (A1G) (E1U) (E1U)
                 (E2G) (E2G) (B1U)
 The electronic state of the initial guess is 1-A1G.
 Leave Link  401 at Thu Aug 22 16:08:18 2019, MaxMem=  1073741824 cpu:         1.0
 (Enter /cluster/apps/gaussian/g09/l502.exe)
 Closed shell SCF:
 Using DIIS extrapolation, IDIIS=    10.
 Integral symmetry usage will be decided dynamically.
 Keep R1 ints in memory in symmetry-blocked form, NReq=66076902.
 IVT=     4277294 IEndB=     4277294 NGot=  1073741824 MDV=  1062167087
 LenX=  1062167087 LenY=  1062144146
 Requested convergence on RMS density matrix=1.00D-08 within2048 cycles.
 Requested convergence on MAX density matrix=1.00D-06.
 Requested convergence on             energy=1.00D-06.
 Level shift goal  0.100 maximum shift  0.100.
 No special actions if energy rises.
 FoFCou: FMM=F IPFlag=           0 FMFlag=           0 FMFlg1=           0
         NFxFlg=           0 DoJE=F BraDBF=F KetDBF=F FulRan=T
         wScrn=  0.000000 ICntrl=     600 IOpCl=  0 I1Cent=           0 NGrid=           0
         NMat0=    1 NMatS0=  10440 NMatT0=    0 NMatD0=    1 NMtDS0=    0 NMtDT0=    0
 Petite list used in FoFCou.
 Integral accuracy reduced to 1.0D-05 until final iterations.

 Cycle   1  Pass 0  IDiag  1:
 E= -232.121954515489    
 DIIS: error= 2.64D-02 at cycle   1 NSaved=   1.
 NSaved= 1 IEnMin= 1 EnMin= -232.121954515489     IErMin= 1 ErrMin= 2.64D-02
 ErrMax= 2.64D-02  0.00D+00 EMaxC= 1.00D+00 BMatC= 7.98D-02 BMatP= 7.98D-02
 IDIUse=1 WtCom= 1.00D+00 WtEn= 0.00D+00
 Coeff-Com:  0.100D+01
 Coeff:      0.100D+01
 Gap=     0.204 Goal=     0.100 Shift=    0.000
 GapD=    0.204 DampG=1.000 DampE=0.500 DampFc=0.5000 IDamp=-1.
 Damping current iteration by 5.00D-01
 RMSDP=2.95D-03 MaxDP=6.06D-02              OVMax= 1.14D-01

 Cycle   2  Pass 0  IDiag  1:
 E= -232.161934998963     Delta-E=       -0.039980483474 Rises=F Damp=T
 DIIS: error= 6.09D-03 at cycle   2 NSaved=   2.
 NSaved= 2 IEnMin= 2 EnMin= -232.161934998963     IErMin= 2 ErrMin= 6.09D-03
 ErrMax= 6.09D-03  0.00D+00 EMaxC= 1.00D+00 BMatC= 5.16D-03 BMatP= 7.98D-02
 IDIUse=1 WtCom= 1.00D+00 WtEn= 0.00D+00
 Coeff-Com: -0.281D-01 0.103D+01
 Coeff:     -0.281D-01 0.103D+01
 Gap=     0.205 Goal=     0.100 Shift=    0.000
 GapD=    0.205 DampG=1.000 DampE=1.000 DampFc=1.0000 IDamp=-1.
 RMSDP=5.50D-04 MaxDP=6.19D-03 DE=-4.00D-02 OVMax= 6.88D-02

 Cycle   3  Pass 0  IDiag  1:
 E= -232.204873158020     Delta-E=       -0.042938159057 Rises=F Damp=F
 DIIS: error= 3.65D-03 at cycle   3 NSaved=   3.
 NSaved= 3 IEnMin= 3 EnMin= -232.204873158020     IErMin= 3 ErrMin= 3.65D-03
 ErrMax= 3.65D-03  0.00D+00 EMaxC= 1.00D+00 BMatC= 1.32D-03 BMatP= 5.16D-03
 IDIUse=1 WtCom= 1.00D+00 WtEn= 0.00D+00
 Coeff-Com: -0.737D-01 0.322D+00 0.752D+00
 Coeff:     -0.737D-01 0.322D+00 0.752D+00
 Gap=     0.202 Goal=     0.100 Shift=    0.000
 GapD=    0.202 DampG=1.000 DampE=1.000 DampFc=1.0000 IDamp=-1.
 RMSDP=2.28D-04 MaxDP=2.94D-03 DE=-4.29D-02 OVMax= 9.48D-03

 Cycle   4  Pass 0  IDiag  1:
 E= -232.206245847227     Delta-E=       -0.001372689207 Rises=F Damp=F
 DIIS: error= 5.45D-04 at cycle   4 NSaved=   4.
 NSaved= 4 IEnMin= 4 EnMin= -232.206245847227     IErMin= 4 ErrMin= 5.45D-04
 ErrMax= 5.45D-04  0.00D+00 EMaxC= 1.00D+00 BMatC= 2.95D-05 BMatP= 1.32D-03
 IDIUse=1 WtCom= 1.00D+00 WtEn= 0.00D+00
 Coeff-Com: -0.192D-01 0.410D-01 0.185D+00 0.793D+00
 Coeff:     -0.192D-01 0.410D-01 0.185D+00 0.793D+00
 Gap=     0.202 Goal=     0.100 Shift=    0.000
 RMSDP=2.95D-05 MaxDP=3.13D-04 DE=-1.37D-03 OVMax= 1.10D-03

 Cycle   5  Pass 0  IDiag  1:
 E= -232.206273481201     Delta-E=       -0.000027633974 Rises=F Damp=F
 DIIS: error= 1.81D-05 at cycle   5 NSaved=   5.
 NSaved= 5 IEnMin= 5 EnMin= -232.206273481201     IErMin= 5 ErrMin= 1.81D-05
 ErrMax= 1.81D-05  0.00D+00 EMaxC= 1.00D+00 BMatC= 4.12D-08 BMatP= 2.95D-05
 IDIUse=1 WtCom= 1.00D+00 WtEn= 0.00D+00
 Coeff-Com: -0.810D-03 0.199D-03 0.880D-02 0.610D-01 0.931D+00
 Coeff:     -0.810D-03 0.199D-03 0.880D-02 0.610D-01 0.931D+00
 Gap=     0.202 Goal=     0.100 Shift=    0.000
 RMSDP=1.98D-06 MaxDP=2.45D-05 DE=-2.76D-05 OVMax= 4.82D-05

 Initial convergence to 1.0D-05 achieved.  Increase integral accuracy.
 Cycle   6  Pass 1  IDiag  1:
 E= -232.206275522298     Delta-E=       -0.000002041097 Rises=F Damp=F
 DIIS: error= 1.59D-06 at cycle   1 NSaved=   1.
 NSaved= 1 IEnMin= 1 EnMin= -232.206275522298     IErMin= 1 ErrMin= 1.59D-06
 ErrMax= 1.59D-06  0.00D+00 EMaxC= 1.00D+00 BMatC= 2.32D-10 BMatP= 2.32D-10
 IDIUse=1 WtCom= 1.00D+00 WtEn= 0.00D+00
 Coeff-Com:  0.100D+01
 Coeff:      0.100D+01
 Gap=     0.202 Goal=     0.100 Shift=    0.000
 RMSDP=1.98D-06 MaxDP=2.45D-05 DE=-2.04D-06 OVMax= 9.75D-06

 Cycle   7  Pass 1  IDiag  1:
 E= -232.206275522480     Delta-E=       -0.000000000182 Rises=F Damp=F
 DIIS: error= 1.05D-06 at cycle   2 NSaved=   2.
 NSaved= 2 IEnMin= 2 EnMin= -232.206275522480     IErMin= 2 ErrMin= 1.05D-06
 ErrMax= 1.05D-06  0.00D+00 EMaxC= 1.00D+00 BMatC= 1.14D-10 BMatP= 2.32D-10
 IDIUse=1 WtCom= 1.00D+00 WtEn= 0.00D+00
 Coeff-Com:  0.395D+00 0.605D+00
 Coeff:      0.395D+00 0.605D+00
 Gap=     0.202 Goal=     0.100 Shift=    0.000
 RMSDP=7.75D-08 MaxDP=9.42D-07 DE=-1.82D-10 OVMax= 3.19D-06

 Cycle   8  Pass 1  IDiag  1:
 E= -232.206275522600     Delta-E=       -0.000000000120 Rises=F Damp=F
 DIIS: error= 2.73D-07 at cycle   3 NSaved=   3.
 NSaved= 3 IEnMin= 3 EnMin= -232.206275522600     IErMin= 3 ErrMin= 2.73D-07
 ErrMax= 2.73D-07  0.00D+00 EMaxC= 1.00D+00 BMatC= 9.60D-12 BMatP= 1.14D-10
 IDIUse=1 WtCom= 1.00D+00 WtEn= 0.00D+00
 Coeff-Com:  0.284D-01 0.232D+00 0.740D+00
 Coeff:      0.284D-01 0.232D+00 0.740D+00
 Gap=     0.202 Goal=     0.100 Shift=    0.000
 RMSDP=1.71D-08 MaxDP=3.60D-07 DE=-1.20D-10 OVMax= 7.53D-07

 Cycle   9  Pass 1  IDiag  1:
 E= -232.206275522610     Delta-E=       -0.000000000010 Rises=F Damp=F
 DIIS: error= 3.32D-08 at cycle   4 NSaved=   4.
 NSaved= 4 IEnMin= 4 EnMin= -232.206275522610     IErMin= 4 ErrMin= 3.32D-08
 ErrMax= 3.32D-08  0.00D+00 EMaxC= 1.00D+00 BMatC= 1.30D-13 BMatP= 9.60D-12
 IDIUse=1 WtCom= 1.00D+00 WtEn= 0.00D+00
 Coeff-Com: -0.641D-02 0.392D-01 0.184D+00 0.783D+00
 Coeff:     -0.641D-02 0.392D-01 0.184D+00 0.783D+00
 Gap=     0.202 Goal=     0.100 Shift=    0.000
 RMSDP=2.26D-09 MaxDP=4.72D-08 DE=-9.78D-12 OVMax= 8.45D-08

 SCF Done:  E(RB3LYP) =  -232.206275523     A.U. after    9 cycles
            NFock=  9  Conv=0.23D-08     -V/T= 2.0134
 KE= 2.291357116658D+02 PE=-9.081099653567D+02 EE= 2.610916043337D+02
 Leave Link  502 at Thu Aug 22 16:08:20 2019, MaxMem=  1073741824 cpu:         7.2
 (Enter /cluster/apps/gaussian/g09/l601.exe)
 Copying SCF densities to generalized density rwf, IOpCl= 0 IROHF=0.

 **********************************************************************

            Population analysis using the SCF density.

 **********************************************************************

 Orbital symmetries:
       Occupied  (A1G) (E1U) (E1U) (E2G) (E2G) (B1U) (A1G) (E1U)
                 (E1U) (E2G) (E2G) (A1G) (B1U) (B2U) (E1U) (E1U)
                 (E2G) (E2G) (A2U) (E1G) (E1G)
       Virtual   (E2U) (E2U) (A1G) (E1U) (E1U) (B2G) (E2G) (E2G)
                 (B1U) (E2G) (E2G) (E1U) (E1U) (A1G) (B1U) (B2U)
                 (E1U) (E1U) (E2G) (E2G) (A2U) (A2G) (A1G) (E1G)
                 (E1G) (E2U) (E2U) (E2G) (E2G) (B1U) (B2G) (E1U)
                 (E1U) (A1G) (E1U) (E1U) (B1U) (E2G) (E2G) (A2G)
                 (E1U) (E1U) (A2U) (E2G) (E2G) (B1G) (E1G) (E1G)
                 (E2U) (E2U) (B1U) (A1G) (B2U) (E1U) (E1U) (A1G)
                 (B2G) (E2G) (E2G) (E2U) (E2U) (E1U) (E1U) (E2G)
                 (E2G) (A2U) (E1G) (E1G) (B2U) (B1U) (E1G) (E1G)
                 (E1U) (E1U) (E2G) (E2G) (A2G) (E2U) (E2U) (A1U)
                 (B2G) (E2G) (E2G) (A1G) (E1U) (E1U) (E1U) (E1U)
                 (B1U) (A2U) (A1G) (E1U) (E1U) (E2G) (E2G) (A2G)
                 (E2G) (E2G) (E1G) (E1G) (B1U) (B2U) (E2U) (E2U)
                 (B2G) (E2G) (E2G) (B1U) (A1G) (E1U) (E1U) (E2G)
                 (E2G) (B1U) (E1U) (E1U) (A2G) (A1G) (E1U) (E1U)
                 (E2G) (E2G) (B1U)
 The electronic state is 1-A1G.
 Alpha  occ. eigenvalues --  -10.21752 -10.21743 -10.21743 -10.21721 -10.21721
 Alpha  occ. eigenvalues --  -10.21711  -0.79340  -0.71336  -0.71336  -0.58744
 Alpha  occ. eigenvalues --   -0.58744  -0.48788  -0.48064  -0.41328  -0.40991
 Alpha  occ. eigenvalues --   -0.40991  -0.34785  -0.34785  -0.32994  -0.24177
 Alpha  occ. eigenvalues --   -0.24177
 Alpha virt. eigenvalues --   -0.03932  -0.03932   0.03712   0.07038   0.07038
 Alpha virt. eigenvalues --    0.08146   0.08518   0.08518   0.10224   0.20309
 Alpha virt. eigenvalues --    0.20309   0.21599   0.21599   0.28034   0.31008
 Alpha virt. eigenvalues --    0.35513   0.37350   0.37350   0.38575   0.38575
 Alpha virt. eigenvalues --    0.39992   0.40958   0.44437   0.46018   0.46018
 Alpha virt. eigenvalues --    0.51371   0.51371   0.55127   0.55127   0.57254
 Alpha virt. eigenvalues --    0.57610   0.59437   0.59437   0.66381   0.68080
 Alpha virt. eigenvalues --    0.68080   0.71797   0.72724   0.72724   0.74366
 Alpha virt. eigenvalues --    0.81488   0.81488   0.96210   0.97213   0.97213
 Alpha virt. eigenvalues --    0.98965   1.04565   1.04565   1.08599   1.08599
 Alpha virt. eigenvalues --    1.20836   1.32113   1.35252   1.36678   1.36678
 Alpha virt. eigenvalues --    1.38682   1.47652   1.47943   1.47943   1.48237
 Alpha virt. eigenvalues --    1.48237   1.54642   1.54642   1.64167   1.64167
 Alpha virt. eigenvalues --    1.69289   1.71845   1.71845   1.73920   1.78127
 Alpha virt. eigenvalues --    1.81802   1.81802   1.83562   1.83562   1.87248
 Alpha virt. eigenvalues --    1.87248   1.89307   1.97646   1.97646   2.12060
 Alpha virt. eigenvalues --    2.14170   2.16635   2.16635   2.18115   2.18235
 Alpha virt. eigenvalues --    2.18235   2.37556   2.37556   2.47912   2.50958
 Alpha virt. eigenvalues --    2.53511   2.58270   2.58270   2.60847   2.60847
 Alpha virt. eigenvalues --    2.62164   2.63136   2.63136   2.66008   2.66008
 Alpha virt. eigenvalues --    2.69763   2.75425   2.77374   2.77374   2.90589
 Alpha virt. eigenvalues --    3.05927   3.05927   3.14180   3.21630   3.22750
 Alpha virt. eigenvalues --    3.22750   3.83619   3.83619   3.87915   4.00335
 Alpha virt. eigenvalues --    4.00335   4.47142  23.47749  23.65104  23.65104
 Alpha virt. eigenvalues --   23.68355  23.68355  23.76655
          Condensed to atoms (all electrons):
               1          2          3          4          5          6
     1  C    4.929773   0.482212  -0.044551  -0.019564  -0.044551   0.482212
     2  C    0.482212   4.929773   0.482212  -0.044551  -0.019564  -0.044551
     3  C   -0.044551   0.482212   4.929773   0.482212  -0.044551  -0.019564
     4  C   -0.019564  -0.044551   0.482212   4.929773   0.482212  -0.044551
     5  C   -0.044551  -0.019564  -0.044551   0.482212   4.929773   0.482212
     6  C    0.482212  -0.044551  -0.019564  -0.044551   0.482212   4.929773
     7  H   -0.034421   0.004045  -0.000197   0.004045  -0.034421   0.392818
     8  H    0.004045  -0.000197   0.004045  -0.034421   0.392818  -0.034421
     9  H   -0.000197   0.004045  -0.034421   0.392818  -0.034421   0.004045
    10  H    0.004045  -0.034421   0.392818  -0.034421   0.004045  -0.000197
    11  H   -0.034421   0.392818  -0.034421   0.004045  -0.000197   0.004045
    12  H    0.392818  -0.034421   0.004045  -0.000197   0.004045  -0.034421
               7          8          9         10         11         12
     1  C   -0.034421   0.004045  -0.000197   0.004045  -0.034421   0.392818
     2  C    0.004045  -0.000197   0.004045  -0.034421   0.392818  -0.034421
     3  C   -0.000197   0.004045  -0.034421   0.392818  -0.034421   0.004045
     4  C    0.004045  -0.034421   0.392818  -0.034421   0.004045  -0.000197
     5  C   -0.034421   0.392818  -0.034421   0.004045  -0.000197   0.004045
     6  C    0.392818  -0.034421   0.004045  -0.000197   0.004045  -0.034421
     7  H    0.557876  -0.003403  -0.000182   0.000023  -0.000182  -0.003403
     8  H   -0.003403   0.557876  -0.003403  -0.000182   0.000023  -0.000182
     9  H   -0.000182  -0.003403   0.557876  -0.003403  -0.000182   0.000023
    10  H    0.000023  -0.000182  -0.003403   0.557876  -0.003403  -0.000182
    11  H   -0.000182   0.000023  -0.000182  -0.003403   0.557876  -0.003403
    12  H   -0.003403  -0.000182   0.000023  -0.000182  -0.003403   0.557876
 Mulliken charges:
               1
     1  C   -0.117401
     2  C   -0.117401
     3  C   -0.117401
     4  C   -0.117401
     5  C   -0.117401
     6  C   -0.117401
     7  H    0.117401
     8  H    0.117401
     9  H    0.117401
    10  H    0.117401
    11  H    0.117401
    12  H    0.117401
 Sum of Mulliken charges =   0.00000
 Mulliken charges with hydrogens summed into heavy atoms:
               1
     1  C    0.000000
     2  C    0.000000
     3  C    0.000000
     4  C    0.000000
     5  C    0.000000
     6  C    0.000000
 Electronic spatial extent (au):  <R**2>=            536.0109
 Charge=              0.0000 electrons
 Dipole moment (field-independent basis, Debye):
    X=              0.0000    Y=              0.0000    Z=              0.0000  Tot=              0.0000
 Quadrupole moment (field-independent basis, Debye-Ang):
   XX=            -30.9784   YY=            -30.9784   ZZ=            -41.9189
   XY=              0.0000   XZ=              0.0000   YZ=              0.0000
 Traceless Quadrupole moment (field-independent basis, Debye-Ang):
   XX=              3.6468   YY=              3.6468   ZZ=             -7.2937
   XY=              0.0000   XZ=              0.0000   YZ=              0.0000
 Octapole moment (field-independent basis, Debye-Ang**2):
  XXX=              0.0000  YYY=              0.0000  ZZZ=              0.0000  XYY=              0.0000
  XXY=              0.0000  XXZ=              0.0000  XZZ=              0.0000  YZZ=              0.0000
  YYZ=              0.0000  XYZ=              0.0000
 Hexadecapole moment (field-independent basis, Debye-Ang**3):
 XXXX=           -315.5440 YYYY=           -315.5440 ZZZZ=            -49.6960 XXXY=              0.0000
 XXXZ=              0.0000 YYYX=              0.0000 YYYZ=              0.0000 ZZZX=              0.0000
 ZZZY=              0.0000 XXYY=           -105.1813 XXZZ=            -76.4015 YYZZ=            -76.4015
 XXYZ=              0.0000 YYXZ=              0.0000 ZZXY=              0.0000
 N-N= 1.856763738346D+02 E-N=-9.081099698099D+02  KE= 2.291357116658D+02
 Symmetry AG   KE= 7.393507944851D+01
 Symmetry B1G  KE= 3.736983102767D+01
 Symmetry B2G  KE= 2.187687403829D+00
 Symmetry B3G  KE= 2.187687403829D+00
 Symmetry AU   KE=-6.748386515629D-17
 Symmetry B1U  KE= 1.855004343260D+00
 Symmetry B2U  KE= 7.171536262010D+01
 Symmetry B3U  KE= 3.988505941860D+01
 No NMR shielding tensors so no spin-rotation constants.
 Leave Link  601 at Thu Aug 22 16:08:20 2019, MaxMem=  1073741824 cpu:         0.4
 (Enter /cluster/apps/gaussian/g09/l701.exe)
 Compute integral first derivatives.
 ... and contract with generalized density number  0.
 Leave Link  701 at Thu Aug 22 16:08:20 2019, MaxMem=  1073741824 cpu:         0.4
 (Enter /cluster/apps/gaussian/g09/l702.exe)
 L702 exits ... SP integral derivatives will be done elsewhere.
 Leave Link  702 at Thu Aug 22 16:08:20 2019, MaxMem=  1073741824 cpu:         0.1
 (Enter /cluster/apps/gaussian/g09/l703.exe)
 Compute integral first derivatives, UseDBF=F ICtDFT=           0.
 Integral derivatives from FoFJK, PRISM(SPDF).
 Calling FoFJK, ICntrl=      2127 FMM=F ISym2X=0 I1Cent= 0 IOpClX= 0 NMat=1 NMatS=1 NMatT=0.
 FoFJK:  IHMeth= 1 ICntrl=    2127 DoSepK=F KAlg= 0 I1Cent=   0 FoldK=F
 IRaf=         0 NMat=   1 IRICut=       1 DoRegI=T DoRafI=F ISym2E= 0.
 FoFCou: FMM=F IPFlag=           0 FMFlag=      100000 FMFlg1=         800
         NFxFlg=           0 DoJE=F BraDBF=F KetDBF=F FulRan=T
         wScrn=  0.000000 ICntrl=    2127 IOpCl=  0 I1Cent=           0 NGrid=           0
         NMat0=    1 NMatS0=      1 NMatT0=    0 NMatD0=    1 NMtDS0=    0 NMtDT0=    0
 Symmetry not used in FoFCou.
 Leave Link  703 at Thu Aug 22 16:08:25 2019, MaxMem=  1073741824 cpu:        20.1
 (Enter /cluster/apps/gaussian/g09/l716.exe)
 Dipole        = 4.84841887D-15 8.88178420D-16 1.56220557D-17
 ***** Axes restored to original set *****
 -------------------------------------------------------------------
 Center     Atomic                   Forces (Hartrees/Bohr)
 Number     Number              X              Y              Z
 -------------------------------------------------------------------
      1        6           0.062197713   -0.000000002    0.000000000
      2        6           0.031098588    0.053864602    0.000000000
      3        6          -0.031098584    0.053864604    0.000000000
      4        6          -0.062197713    0.000000002    0.000000000
      5        6          -0.031098588   -0.053864602    0.000000000
      6        6           0.031098584   -0.053864604    0.000000000
      7        1           0.017071210   -0.029568227    0.000000000
      8        1          -0.017071212   -0.029568226    0.000000000
      9        1          -0.034142428    0.000000001    0.000000000
     10        1          -0.017071210    0.029568227    0.000000000
     11        1           0.017071212    0.029568226    0.000000000
     12        1           0.034142428   -0.000000001    0.000000000
 -------------------------------------------------------------------
 Cartesian Forces:  Max     0.062197713 RMS     0.028966176
 Leave Link  716 at Thu Aug 22 16:08:25 2019, MaxMem=  1073741824 cpu:         0.1
 (Enter /cluster/apps/gaussian/g09/l103.exe)

 GradGradGradGradGradGradGradGradGradGradGradGradGradGradGradGradGradGrad
 Berny optimization.
 FormGI is forming the generalized inverse of G from B-inverse, IUseBI=4.
 Internal  Forces:  Max     0.096339985 RMS     0.034070338
 Search for a local minimum.
 Step number   1 out of a maximum of   64
 All quantities printed in internal units (Hartrees-Bohrs-Radians)
 RMS Force = .34070D-01 SwitMx=.10000D-02 MixMth= 1
 Mixed Optimization -- RFO/linear search
 Second derivative matrix not updated -- first step.
 ITU=  0
     Eigenvalues ---    0.00237   0.00237   0.00237   0.00237   0.00237
     Eigenvalues ---    0.00237   0.00237   0.00237   0.00237   0.16000
     Eigenvalues ---    0.16000   0.16000   0.16000   0.16000   0.16000
     Eigenvalues ---    0.22000   0.22000   0.22000   0.27538   0.27538
     Eigenvalues ---    0.28519   0.28519   0.28519   0.28519   0.29619
     Eigenvalues ---    0.29619   0.29619   0.29619   0.29619   0.29619
 RFO step:  Lambda=-1.45227177D-01 EMin= 2.36824121D-03
 Linear search not attempted -- first point.
 Maximum step size (   0.300) exceeded in Quadratic search.
    -- Step size scaled by   0.517
 Iteration  1 RMS(Cart)=  0.06468800 RMS(Int)=  0.00000000
 Iteration  2 RMS(Cart)=  0.00000000 RMS(Int)=  0.00000000
 ITry= 1 IFail=0 DXMaxC= 1.56D-01 DCOld= 1.00D+10 DXMaxT= 3.00D-01 DXLimC= 3.00D+00 Rises=F
 ClnCor:  largest displacement from symmetrization is 2.77D-07 for atom     2.
 Variable       Old X    -DE/DX   Delta X   Delta X   Delta X     New X
                                 (Linear)    (Quad)   (Total)
    R1        2.91018  -0.09634   0.00000  -0.11576  -0.11576   2.79442
    R2        2.91018  -0.09634   0.00000  -0.11576  -0.11576   2.79442
    R3        2.15429  -0.03414   0.00000  -0.04000  -0.04000   2.11429
    R4        2.91018  -0.09634   0.00000  -0.11576  -0.11576   2.79442
    R5        2.15429  -0.03414   0.00000  -0.04000  -0.04000   2.11429
    R6        2.91018  -0.09634   0.00000  -0.11576  -0.11576   2.79442
    R7        2.15429  -0.03414   0.00000  -0.04000  -0.04000   2.11429
    R8        2.91018  -0.09634   0.00000  -0.11576  -0.11576   2.79442
    R9        2.15429  -0.03414   0.00000  -0.04000  -0.04000   2.11429
   R10        2.91018  -0.09634   0.00000  -0.11576  -0.11576   2.79442
   R11        2.15429  -0.03414   0.00000  -0.04000  -0.04000   2.11429
   R12        2.15429  -0.03414   0.00000  -0.04000  -0.04000   2.11429
    A1        2.09440   0.00000   0.00000   0.00000   0.00000   2.09440
    A2        2.09440   0.00000   0.00000   0.00000   0.00000   2.09440
    A3        2.09440   0.00000   0.00000   0.00000   0.00000   2.09440
    A4        2.09440   0.00000   0.00000   0.00000   0.00000   2.09440
    A5        2.09440   0.00000   0.00000   0.00000   0.00000   2.09440
    A6        2.09440   0.00000   0.00000   0.00000   0.00000   2.09440
    A7        2.09440   0.00000   0.00000   0.00000   0.00000   2.09440
    A8        2.09440   0.00000   0.00000   0.00000   0.00000   2.09440
    A9        2.09440   0.00000   0.00000   0.00000   0.00000   2.09440
   A10        2.09440   0.00000   0.00000   0.00000   0.00000   2.09440
   A11        2.09440   0.00000   0.00000   0.00000   0.00000   2.09440
   A12        2.09440   0.00000   0.00000   0.00000   0.00000   2.09440
   A13        2.09440   0.00000   0.00000   0.00000   0.00000   2.09440
   A14        2.09440   0.00000   0.00000   0.00000   0.00000   2.09440
   A15        2.09440   0.00000   0.00000   0.00000   0.00000   2.09440
   A16        2.09440   0.00000   0.00000   0.00000   0.00000   2.09440
   A17        2.09440   0.00000   0.00000   0.00000   0.00000   2.09440
   A18        2.09440   0.00000   0.00000   0.00000   0.00000   2.09440
    D1        0.00000   0.00000   0.00000   0.00000   0.00000   0.00000
    D2        3.14159   0.00000   0.00000   0.00000   0.00000   3.14159
    D3        3.14159   0.00000   0.00000   0.00000   0.00000   3.14159
    D4        0.00000   0.00000   0.00000   0.00000   0.00000   0.00000
    D5        0.00000   0.00000   0.00000   0.00000   0.00000   0.00000
    D6        3.14159   0.00000   0.00000   0.00000   0.00000   3.14159
    D7        3.14159   0.00000   0.00000   0.00000   0.00000   3.14159
    D8        0.00000   0.00000   0.00000   0.00000   0.00000   0.00000
    D9        0.00000   0.00000   0.00000   0.00000   0.00000   0.00000
   D10        3.14159   0.00000   0.00000   0.00000   0.00000   3.14159
   D11        3.14159   0.00000   0.00000   0.00000   0.00000   3.14159
   D12        0.00000   0.00000   0.00000   0.00000   0.00000   0.00000
   D13        0.00000   0.00000   0.00000   0.00000   0.00000   0.00000
   D14        3.14159   0.00000   0.00000   0.00000   0.00000   3.14159
   D15        3.14159   0.00000   0.00000   0.00000   0.00000   3.14159
   D16        0.00000   0.00000   0.00000   0.00000   0.00000   0.00000
   D17        0.00000   0.00000   0.00000   0.00000   0.00000   0.00000
   D18        3.14159   0.00000   0.00000   0.00000   0.00000   3.14159
   D19        3.14159   0.00000   0.00000   0.00000   0.00000   3.14159
   D20        0.00000   0.00000   0.00000   0.00000   0.00000   0.00000
   D21        0.00000   0.00000   0.00000   0.00000   0.00000   0.00000
   D22        3.14159   0.00000   0.00000   0.00000   0.00000   3.14159
   D23        3.14159   0.00000   0.00000   0.00000   0.00000   3.14159
   D24        0.00000   0.00000   0.00000   0.00000   0.00000   0.00000
         Item               Value     Threshold  Converged?
 Maximum Force            0.096340     0.000015     NO 
 RMS     Force            0.034070     0.000010     NO 
 Maximum Displacement     0.155759     0.000060     NO 
 RMS     Displacement     0.064688     0.000040     NO 
 Predicted change in Energy=-6.222081D-02
 Lowest energy point so far.  Saving SCF results.
 GradGradGradGradGradGradGradGradGradGradGradGradGradGradGradGradGradGrad

 Leave Link  103 at Thu Aug 22 16:08:25 2019, MaxMem=  1073741824 cpu:         0.1
 (Enter /cluster/apps/gaussian/g09/l202.exe)
                          Input orientation:                          
 ---------------------------------------------------------------------
 Center     Atomic      Atomic             Coordinates (Angstroms)
 Number     Number       Type             X           Y           Z
 ---------------------------------------------------------------------
      1          6           0       -1.508266    0.491143    0.000000
      2          6           0       -0.768895   -0.789486    0.000000
      3          6           0        0.709849   -0.789486    0.000000
      4          6           0        1.449220    0.491143    0.000000
      5          6           0        0.709849    1.771772    0.000000
      6          6           0       -0.768895    1.771772    0.000000
      7          1           0       -1.328311    2.740710    0.000000
      8          1           0        1.269265    2.740710    0.000000
      9          1           0        2.568053    0.491143    0.000000
     10          1           0        1.269265   -1.758424    0.000000
     11          1           0       -1.328311   -1.758424    0.000000
     12          1           0       -2.627099    0.491143    0.000000
 ---------------------------------------------------------------------
                    Distance matrix (angstroms):
                    1          2          3          4          5
     1  C    0.000000
     2  C    1.478743   0.000000
     3  C    2.561259   1.478743   0.000000
     4  C    2.957487   2.561259   1.478743   0.000000
     5  C    2.561259   2.957487   2.561259   1.478743   0.000000
     6  C    1.478743   2.561259   2.957487   2.561259   1.478743
     7  H    2.256753   3.574245   4.076319   3.574245   2.256753
     8  H    3.574245   4.076319   3.574245   2.256753   1.118832
     9  H    4.076319   3.574245   2.256753   1.118832   2.256753
    10  H    3.574245   2.256753   1.118832   2.256753   3.574245
    11  H    2.256753   1.118832   2.256753   3.574245   4.076319
    12  H    1.118832   2.256753   3.574245   4.076319   3.574245
                    6          7          8          9         10
     6  C    0.000000
     7  H    1.118832   0.000000
     8  H    2.256753   2.597576   0.000000
     9  H    3.574245   4.499133   2.597576   0.000000
    10  H    4.076319   5.195151   4.499133   2.597576   0.000000
    11  H    3.574245   4.499133   5.195151   4.499133   2.597576
    12  H    2.256753   2.597576   4.499133   5.195151   4.499133
                   11         12
    11  H    0.000000
    12  H    2.597576   0.000000
 Stoichiometry    C6H6
 Framework group  D6H[3C2'(HC.CH)]
 Deg. of freedom     2
 Full point group                 D6H     NOp  24
 RotChk:  IX=0 Diff= 5.03D-16
 Largest Abelian subgroup         D2H     NOp   8
 Largest concise Abelian subgroup D2      NOp   4
                         Standard orientation:                         
 ---------------------------------------------------------------------
 Center     Atomic      Atomic             Coordinates (Angstroms)
 Number     Number       Type             X           Y           Z
 ---------------------------------------------------------------------
      1          6           0        0.000000    1.478743    0.000000
      2          6           0        1.280629    0.739372    0.000000
      3          6           0        1.280629   -0.739372    0.000000
      4          6           0        0.000000   -1.478743    0.000000
      5          6           0       -1.280629   -0.739372    0.000000
      6          6           0       -1.280629    0.739372    0.000000
      7          1           0       -2.249567    1.298788    0.000000
      8          1           0       -2.249567   -1.298788    0.000000
      9          1           0        0.000000   -2.597576    0.000000
     10          1           0        2.249567   -1.298788    0.000000
     11          1           0        2.249567    1.298788    0.000000
     12          1           0        0.000000    2.597576    0.000000
 ---------------------------------------------------------------------
 Rotational constants (GHZ):      5.0985989      5.0985989      2.5492994
 Leave Link  202 at Thu Aug 22 16:08:25 2019, MaxMem=  1073741824 cpu:         0.0
 (Enter /cluster/apps/gaussian/g09/l301.exe)
 Standard basis: 6-311G(d,p) (5D, 7F)
 Ernie: Thresh=  0.10000D-02 Tol=  0.10000D-05 Strict=F.
 There are    33 symmetry adapted cartesian basis functions of AG  symmetry.
 There are    24 symmetry adapted cartesian basis functions of B1G symmetry.
 There are     7 symmetry adapted cartesian basis functions of B2G symmetry.
 There are    11 symmetry adapted cartesian basis functions of B3G symmetry.
 There are     7 symmetry adapted cartesian basis functions of AU  symmetry.
 There are    11 symmetry adapted cartesian basis functions of B1U symmetry.
 There are    33 symmetry adapted cartesian basis functions of B2U symmetry.
 There are    24 symmetry adapted cartesian basis functions of B3U symmetry.
 There are    31 symmetry adapted basis functions of AG  symmetry.
 There are    23 symmetry adapted basis functions of B1G symmetry.
 There are     7 symmetry adapted basis functions of B2G symmetry.
 There are    11 symmetry adapted basis functions of B3G symmetry.
 There are     7 symmetry adapted basis functions of AU  symmetry.
 There are    11 symmetry adapted basis functions of B1U symmetry.
 There are    31 symmetry adapted basis functions of B2U symmetry.
 There are    23 symmetry adapted basis functions of B3U symmetry.
   144 basis functions,   240 primitive gaussians,   150 cartesian basis functions
    21 alpha electrons       21 beta electrons
       nuclear repulsion energy       192.7253557950 Hartrees.
 IExCor=  402 DFT=T Ex+Corr=B3LYP ExCW=0 ScaHFX=  0.200000
 ScaDFX=  0.800000  0.720000  1.000000  0.810000 ScalE2=  1.000000  1.000000
 IRadAn=      7 IRanWt=     -1 IRanGd=            0 ICorTp=0 IEmpDi=  4
 NAtoms=   12 NActive=   12 NUniq=    2 SFac= 4.00D+00 NAtFMM=   60 NAOKFM=F Big=F
 Integral buffers will be    131072 words long.
 Raffenetti 2 integral format.
 Two-electron integral symmetry is turned on.
 Leave Link  301 at Thu Aug 22 16:08:25 2019, MaxMem=  1073741824 cpu:         0.1
 (Enter /cluster/apps/gaussian/g09/l302.exe)
 NPDir=0 NMtPBC=     1 NCelOv=     1 NCel=       1 NClECP=     1 NCelD=      1
         NCelK=      1 NCelE2=     1 NClLst=     1 CellRange=     0.0.
 One-electron integrals computed using PRISM.
 One-electron integral symmetry used in STVInt
 NBasis=   144 RedAO= T EigKep=  3.21D-04  NBF=    31    23     7    11     7    11    31    23
 NBsUse=   144 1.00D-06 EigRej= -1.00D+00 NBFU=    31    23     7    11     7    11    31    23
 Precomputing XC quadrature grid using
 IXCGrd= 4 IRadAn=           7 IRanWt=          -1 IRanGd=           0 AccXCQ= 0.00D+00.
 Generated NRdTot=       0 NPtTot=           0 NUsed=           0 NTot=          32
 NSgBfM=   150   150   150   150   150 MxSgAt=    12 MxSgA2=    12.
 Leave Link  302 at Thu Aug 22 16:08:25 2019, MaxMem=  1073741824 cpu:         0.8
 (Enter /cluster/apps/gaussian/g09/l303.exe)
 DipDrv:  MaxL=1.
 Leave Link  303 at Thu Aug 22 16:08:25 2019, MaxMem=  1073741824 cpu:         0.1
 (Enter /cluster/apps/gaussian/g09/l401.exe)
 Initial guess from the checkpoint file:  "rb3lyp-opt.chk"
 B after Tr=     0.000000    0.000000    0.000000
         Rot=    1.000000    0.000000    0.000000    0.000000 Ang=   0.00 deg.
 Guess basis will be translated and rotated to current coordinates.
 JPrj=2 DoOrth=T DoCkMO=T.
 Initial guess orbital symmetries:
       Occupied  (A1G) (E1U) (E1U) (E2G) (E2G) (B1U) (A1G) (E1U)
                 (E1U) (E2G) (E2G) (A1G) (B1U) (B2U) (E1U) (E1U)
                 (E2G) (E2G) (A2U) (E1G) (E1G)
       Virtual   (B2G) (B2G) (B2G) (B2G) (B2G) (B2G) (B2G) (B2G)
                 (B2G) (B2G) (B2G) (B2G) (B2G) (B2G) (B2G) (B2G)
                 (B2G) (B2G) (B2G) (B2G) (B2G) (B2G) (B2G) (B2G)
                 (B2G) (B2G) (B2G) (B2G) (B2G) (B2G) (B2G) (B2G)
                 (B2G) (B2G) (B2G) (B2G) (B2G) (B2G) (B2G) (B2G)
                 (B2G) (B2G) (B2G) (B2G) (B2G) (?A) (?A) (?A) (?A)
                 (?A) (?A) (?A) (?A) (?A) (?A) (?A) (?A) (?A) (?A)
                 (?A) (?A) (?B) (?B) (?B) (?B) (?B) (?B) (?B) (?B)
                 (?B) (?B) (?B) (?B) (?B) (?B) (?B) (?B) (?B) (?C)
                 (?C) (?C) (?C) (?C) (?C) (?C) (?C) (?C) (?C) (?C)
                 (?C) (?C) (?C) (?C) (?C) (?C) (?C) (?C) (?C) (?C)
                 (?C) (?C) (?C) (?C) (?C) (?C) (?C) (?C) (?C) (?C)
                 (?C) (?C) (?C) (?C) (?C) (?C) (?C) (?C) (?C) (?C)
                 (?C) (?C) (?C) (?C)
 The electronic state of the initial guess is 1-A1G.
 Generating alternative initial guess.
 ExpMin= 1.03D-01 ExpMax= 4.56D+03 ExpMxC= 6.82D+02 IAcc=3 IRadAn=         5 AccDes= 0.00D+00
 Harris functional with IExCor=  402 and IRadAn=       5 diagonalized for initial guess.
 HarFok:  IExCor=  402 AccDes= 0.00D+00 IRadAn=         5 IDoV= 1 UseB2=F ITyADJ=14
 ICtDFT=  3500011 ScaDFX=  1.000000  1.000000  1.000000  1.000000
 FoFCou: FMM=F IPFlag=           0 FMFlag=      100000 FMFlg1=           0
         NFxFlg=           0 DoJE=T BraDBF=F KetDBF=T FulRan=T
         wScrn=  0.000000 ICntrl=     500 IOpCl=  0 I1Cent=   200000004 NGrid=           0
         NMat0=    1 NMatS0=      1 NMatT0=    0 NMatD0=    1 NMtDS0=    0 NMtDT0=    0
 Petite list used in FoFCou.
 Harris En= -232.263079539885    
 Leave Link  401 at Thu Aug 22 16:08:26 2019, MaxMem=  1073741824 cpu:         0.7
 (Enter /cluster/apps/gaussian/g09/l502.exe)
 Closed shell SCF:
 Using DIIS extrapolation, IDIIS=    10.
 Integral symmetry usage will be decided dynamically.
 Keep R1 ints in memory in symmetry-blocked form, NReq=66076902.
 IVT=     4277294 IEndB=     4277294 NGot=  1073741824 MDV=  1062167087
 LenX=  1062167087 LenY=  1062144146
 Requested convergence on RMS density matrix=1.00D-08 within2048 cycles.
 Requested convergence on MAX density matrix=1.00D-06.
 Requested convergence on             energy=1.00D-06.
 Level shift goal  0.100 maximum shift  0.100.
 No special actions if energy rises.
 FoFCou: FMM=F IPFlag=           0 FMFlag=           0 FMFlg1=           0
         NFxFlg=           0 DoJE=F BraDBF=F KetDBF=F FulRan=T
         wScrn=  0.000000 ICntrl=     600 IOpCl=  0 I1Cent=           0 NGrid=           0
         NMat0=    1 NMatS0=  10440 NMatT0=    0 NMatD0=    1 NMtDS0=    0 NMtDT0=    0
 Petite list used in FoFCou.
 Integral accuracy reduced to 1.0D-05 until final iterations.

 Cycle   1  Pass 0  IDiag  1:
 E= -232.266367157246    
 DIIS: error= 6.11D-03 at cycle   1 NSaved=   1.
 NSaved= 1 IEnMin= 1 EnMin= -232.266367157246     IErMin= 1 ErrMin= 6.11D-03
 ErrMax= 6.11D-03  0.00D+00 EMaxC= 1.00D+00 BMatC= 3.50D-03 BMatP= 3.50D-03
 IDIUse=1 WtCom= 1.00D+00 WtEn= 0.00D+00
 Coeff-Com:  0.100D+01
 Coeff:      0.100D+01
 Gap=     0.368 Goal=     0.100 Shift=    0.000
 GapD=    0.368 DampG=1.000 DampE=1.000 DampFc=1.0000 IDamp=-1.
 RMSDP=4.22D-04 MaxDP=5.72D-03              OVMax= 1.67D-02

 Cycle   2  Pass 0  IDiag  1:
 E= -232.269208556451     Delta-E=       -0.002841399205 Rises=F Damp=F
 DIIS: error= 2.42D-03 at cycle   2 NSaved=   2.
 NSaved= 2 IEnMin= 2 EnMin= -232.269208556451     IErMin= 2 ErrMin= 2.42D-03
 ErrMax= 2.42D-03  0.00D+00 EMaxC= 1.00D+00 BMatC= 7.34D-04 BMatP= 3.50D-03
 IDIUse=1 WtCom= 1.00D+00 WtEn= 0.00D+00
 Coeff-Com:  0.252D+00 0.748D+00
 Coeff:      0.252D+00 0.748D+00
 Gap=     0.220 Goal=     0.100 Shift=    0.000
 GapD=    0.220 DampG=1.000 DampE=1.000 DampFc=1.0000 IDamp=-1.
 RMSDP=2.20D-04 MaxDP=4.76D-03 DE=-2.84D-03 OVMax= 8.97D-03

 Cycle   3  Pass 0  IDiag  1:
 E= -232.269722999996     Delta-E=       -0.000514443545 Rises=F Damp=F
 DIIS: error= 1.56D-03 at cycle   3 NSaved=   3.
 NSaved= 3 IEnMin= 3 EnMin= -232.269722999996     IErMin= 3 ErrMin= 1.56D-03
 ErrMax= 1.56D-03  0.00D+00 EMaxC= 1.00D+00 BMatC= 2.53D-04 BMatP= 7.34D-04
 IDIUse=1 WtCom= 1.00D+00 WtEn= 0.00D+00
 Coeff-Com:  0.102D-02 0.368D+00 0.631D+00
 Coeff:      0.102D-02 0.368D+00 0.631D+00
 Gap=     0.220 Goal=     0.100 Shift=    0.000
 GapD=    0.220 DampG=1.000 DampE=1.000 DampFc=1.0000 IDamp=-1.
 RMSDP=9.08D-05 MaxDP=1.16D-03 DE=-5.14D-04 OVMax= 3.93D-03

 Cycle   4  Pass 0  IDiag  1:
 E= -232.269999927358     Delta-E=       -0.000276927362 Rises=F Damp=F
 DIIS: error= 9.01D-05 at cycle   4 NSaved=   4.
 NSaved= 4 IEnMin= 4 EnMin= -232.269999927358     IErMin= 4 ErrMin= 9.01D-05
 ErrMax= 9.01D-05  0.00D+00 EMaxC= 1.00D+00 BMatC= 9.50D-07 BMatP= 2.53D-04
 IDIUse=1 WtCom= 1.00D+00 WtEn= 0.00D+00
 Coeff-Com: -0.377D-02 0.638D-01 0.139D+00 0.801D+00
 Coeff:     -0.377D-02 0.638D-01 0.139D+00 0.801D+00
 Gap=     0.220 Goal=     0.100 Shift=    0.000
 RMSDP=7.02D-06 MaxDP=1.30D-04 DE=-2.77D-04 OVMax= 1.96D-04

 Initial convergence to 1.0D-05 achieved.  Increase integral accuracy.
 Cycle   5  Pass 1  IDiag  1:
 E= -232.270003076322     Delta-E=       -0.000003148964 Rises=F Damp=F
 DIIS: error= 1.48D-05 at cycle   1 NSaved=   1.
 NSaved= 1 IEnMin= 1 EnMin= -232.270003076322     IErMin= 1 ErrMin= 1.48D-05
 ErrMax= 1.48D-05  0.00D+00 EMaxC= 1.00D+00 BMatC= 2.70D-08 BMatP= 2.70D-08
 IDIUse=1 WtCom= 1.00D+00 WtEn= 0.00D+00
 Coeff-Com:  0.100D+01
 Coeff:      0.100D+01
 Gap=     0.220 Goal=     0.100 Shift=    0.000
 RMSDP=7.02D-06 MaxDP=1.30D-04 DE=-3.15D-06 OVMax= 5.33D-05

 Cycle   6  Pass 1  IDiag  1:
 E= -232.270003094456     Delta-E=       -0.000000018135 Rises=F Damp=F
 DIIS: error= 8.28D-06 at cycle   2 NSaved=   2.
 NSaved= 2 IEnMin= 2 EnMin= -232.270003094456     IErMin= 2 ErrMin= 8.28D-06
 ErrMax= 8.28D-06  0.00D+00 EMaxC= 1.00D+00 BMatC= 7.47D-09 BMatP= 2.70D-08
 IDIUse=1 WtCom= 1.00D+00 WtEn= 0.00D+00
 Coeff-Com:  0.339D+00 0.661D+00
 Coeff:      0.339D+00 0.661D+00
 Gap=     0.220 Goal=     0.100 Shift=    0.000
 RMSDP=5.35D-07 MaxDP=1.09D-05 DE=-1.81D-08 OVMax= 2.02D-05

 Cycle   7  Pass 1  IDiag  1:
 E= -232.270003101730     Delta-E=       -0.000000007274 Rises=F Damp=F
 DIIS: error= 1.71D-06 at cycle   3 NSaved=   3.
 NSaved= 3 IEnMin= 3 EnMin= -232.270003101730     IErMin= 3 ErrMin= 1.71D-06
 ErrMax= 1.71D-06  0.00D+00 EMaxC= 1.00D+00 BMatC= 3.77D-10 BMatP= 7.47D-09
 IDIUse=1 WtCom= 1.00D+00 WtEn= 0.00D+00
 Coeff-Com:  0.152D+00 0.319D+00 0.529D+00
 Coeff:      0.152D+00 0.319D+00 0.529D+00
 Gap=     0.220 Goal=     0.100 Shift=    0.000
 RMSDP=1.10D-07 MaxDP=1.79D-06 DE=-7.27D-09 OVMax= 4.65D-06

 Cycle   8  Pass 1  IDiag  1:
 E= -232.270003102123     Delta-E=       -0.000000000393 Rises=F Damp=F
 DIIS: error= 2.09D-07 at cycle   4 NSaved=   4.
 NSaved= 4 IEnMin= 4 EnMin= -232.270003102123     IErMin= 4 ErrMin= 2.09D-07
 ErrMax= 2.09D-07  0.00D+00 EMaxC= 1.00D+00 BMatC= 4.16D-12 BMatP= 3.77D-10
 IDIUse=1 WtCom= 1.00D+00 WtEn= 0.00D+00
 Coeff-Com:  0.841D-03 0.653D-02 0.989D-01 0.894D+00
 Coeff:      0.841D-03 0.653D-02 0.989D-01 0.894D+00
 Gap=     0.220 Goal=     0.100 Shift=    0.000
 RMSDP=1.32D-08 MaxDP=1.98D-07 DE=-3.93D-10 OVMax= 6.21D-07

 Cycle   9  Pass 1  IDiag  1:
 E= -232.270003102128     Delta-E=       -0.000000000005 Rises=F Damp=F
 DIIS: error= 1.04D-08 at cycle   5 NSaved=   5.
 NSaved= 5 IEnMin= 5 EnMin= -232.270003102128     IErMin= 5 ErrMin= 1.04D-08
 ErrMax= 1.04D-08  0.00D+00 EMaxC= 1.00D+00 BMatC= 1.42D-14 BMatP= 4.16D-12
 IDIUse=1 WtCom= 1.00D+00 WtEn= 0.00D+00
 Coeff-Com: -0.197D-02-0.407D-02-0.474D-02 0.537D-01 0.957D+00
 Coeff:     -0.197D-02-0.407D-02-0.474D-02 0.537D-01 0.957D+00
 Gap=     0.220 Goal=     0.100 Shift=    0.000
 RMSDP=1.29D-09 MaxDP=2.52D-08 DE=-5.12D-12 OVMax= 3.73D-08

 SCF Done:  E(RB3LYP) =  -232.270003102     A.U. after    9 cycles
            NFock=  9  Conv=0.13D-08     -V/T= 2.0103
 KE= 2.298994377944D+02 PE=-9.229247483302D+02 EE= 2.680299516387D+02
 Leave Link  502 at Thu Aug 22 16:08:28 2019, MaxMem=  1073741824 cpu:         7.5
 (Enter /cluster/apps/gaussian/g09/l701.exe)
 Compute integral first derivatives.
 ... and contract with generalized density number  0.
 Leave Link  701 at Thu Aug 22 16:08:28 2019, MaxMem=  1073741824 cpu:         0.3
 (Enter /cluster/apps/gaussian/g09/l702.exe)
 L702 exits ... SP integral derivatives will be done elsewhere.
 Leave Link  702 at Thu Aug 22 16:08:28 2019, MaxMem=  1073741824 cpu:         0.1
 (Enter /cluster/apps/gaussian/g09/l703.exe)
 Compute integral first derivatives, UseDBF=F ICtDFT=           0.
 Integral derivatives from FoFJK, PRISM(SPDF).
 Calling FoFJK, ICntrl=      2127 FMM=F ISym2X=0 I1Cent= 0 IOpClX= 0 NMat=1 NMatS=1 NMatT=0.
 FoFJK:  IHMeth= 1 ICntrl=    2127 DoSepK=F KAlg= 0 I1Cent=   0 FoldK=F
 IRaf=         0 NMat=   1 IRICut=       1 DoRegI=T DoRafI=F ISym2E= 0.
 FoFCou: FMM=F IPFlag=           0 FMFlag=      100000 FMFlg1=         800
         NFxFlg=           0 DoJE=F BraDBF=F KetDBF=F FulRan=T
         wScrn=  0.000000 ICntrl=    2127 IOpCl=  0 I1Cent=           0 NGrid=           0
         NMat0=    1 NMatS0=      1 NMatT0=    0 NMatD0=    1 NMtDS0=    0 NMtDT0=    0
 Symmetry not used in FoFCou.
 Leave Link  703 at Thu Aug 22 16:08:33 2019, MaxMem=  1073741824 cpu:        20.0
 (Enter /cluster/apps/gaussian/g09/l716.exe)
 Dipole        = 5.35708812D-15 2.66453526D-15 1.28850930D-17
 ***** Axes restored to original set *****
 -------------------------------------------------------------------
 Center     Atomic                   Forces (Hartrees/Bohr)
 Number     Number              X              Y              Z
 -------------------------------------------------------------------
      1        6           0.043144025   -0.000000002    0.000000000
      2        6           0.021572073    0.037363730    0.000000000
      3        6          -0.021572070    0.037363731    0.000000000
      4        6          -0.043144025    0.000000002    0.000000000
      5        6          -0.021572073   -0.037363730    0.000000000
      6        6           0.021572070   -0.037363731    0.000000000
      7        1           0.011220706   -0.019434880    0.000000000
      8        1          -0.011220707   -0.019434879    0.000000000
      9        1          -0.022441426    0.000000001    0.000000000
     10        1          -0.011220706    0.019434880    0.000000000
     11        1           0.011220707    0.019434879    0.000000000
     12        1           0.022441426   -0.000000001    0.000000000
 -------------------------------------------------------------------
 Cartesian Forces:  Max     0.043144025 RMS     0.019853725
 Leave Link  716 at Thu Aug 22 16:08:33 2019, MaxMem=  1073741824 cpu:         0.1
 (Enter /cluster/apps/gaussian/g09/l103.exe)

 GradGradGradGradGradGradGradGradGradGradGradGradGradGradGradGradGradGrad
 Berny optimization.
 Using GEDIIS/GDIIS optimizer.
 FormGI is forming the generalized inverse of G from B-inverse, IUseBI=4.
 Internal  Forces:  Max     0.065585504 RMS     0.023106199
 Search for a local minimum.
 Step number   2 out of a maximum of   64
 All quantities printed in internal units (Hartrees-Bohrs-Radians)
 RMS Force = .23106D-01 SwitMx=.10000D-02 MixMth= 1
 Mixed Optimization -- RFO/linear search
 Update second derivatives using D2CorX and points    1    2
 DE= -6.37D-02 DEPred=-6.22D-02 R= 1.02D+00
 TightC=F SS=  1.41D+00  RLast= 3.00D-01 DXNew= 5.0454D-01 9.0000D-01
 Trust test= 1.02D+00 RLast= 3.00D-01 DXMaxT set to 5.05D-01
 ITU=  1  0
 Use linear search instead of GDIIS.
     Eigenvalues ---    0.00237   0.00237   0.00237   0.00237   0.00237
     Eigenvalues ---    0.00237   0.00237   0.00237   0.00237   0.16000
     Eigenvalues ---    0.16000   0.16000   0.16000   0.16000   0.16000
     Eigenvalues ---    0.22000   0.22000   0.22000   0.26618   0.27468
     Eigenvalues ---    0.27468   0.28519   0.28519   0.28519   0.29619
     Eigenvalues ---    0.29619   0.29619   0.29619   0.29619   0.29760
 RFO step:  Lambda=-5.61364280D-05 EMin= 2.36824121D-03
 Quartic linear search produced a step of  1.43055.
 Iteration  1 RMS(Cart)=  0.09207239 RMS(Int)=  0.00000001
 Iteration  2 RMS(Cart)=  0.00000001 RMS(Int)=  0.00000000
 ITry= 1 IFail=0 DXMaxC= 2.20D-01 DCOld= 1.00D+10 DXMaxT= 5.05D-01 DXLimC= 3.00D+00 Rises=F
 ClnCor:  largest displacement from symmetrization is 5.52D-07 for atom     6.
 Variable       Old X    -DE/DX   Delta X   Delta X   Delta X     New X
                                 (Linear)    (Quad)   (Total)
    R1        2.79442  -0.06559  -0.16560  -0.00200  -0.16760   2.62682
    R2        2.79442  -0.06559  -0.16560  -0.00200  -0.16760   2.62682
    R3        2.11429  -0.02244  -0.05722   0.00527  -0.05196   2.06233
    R4        2.79442  -0.06559  -0.16560  -0.00200  -0.16760   2.62682
    R5        2.11429  -0.02244  -0.05722   0.00527  -0.05196   2.06233
    R6        2.79442  -0.06559  -0.16560  -0.00200  -0.16760   2.62682
    R7        2.11429  -0.02244  -0.05722   0.00527  -0.05196   2.06233
    R8        2.79442  -0.06559  -0.16560  -0.00200  -0.16760   2.62682
    R9        2.11429  -0.02244  -0.05722   0.00527  -0.05196   2.06233
   R10        2.79442  -0.06559  -0.16560  -0.00200  -0.16760   2.62682
   R11        2.11429  -0.02244  -0.05722   0.00527  -0.05196   2.06233
   R12        2.11429  -0.02244  -0.05722   0.00527  -0.05196   2.06233
    A1        2.09440   0.00000   0.00000   0.00000   0.00000   2.09440
    A2        2.09440   0.00000   0.00000   0.00000   0.00000   2.09440
    A3        2.09440   0.00000   0.00000   0.00000   0.00000   2.09440
    A4        2.09440   0.00000   0.00000   0.00000   0.00000   2.09440
    A5        2.09440   0.00000   0.00000   0.00000   0.00000   2.09440
    A6        2.09440   0.00000   0.00000   0.00000   0.00000   2.09440
    A7        2.09440   0.00000   0.00000   0.00000   0.00000   2.09440
    A8        2.09440   0.00000   0.00000   0.00000   0.00000   2.09440
    A9        2.09440   0.00000   0.00000   0.00000   0.00000   2.09440
   A10        2.09440   0.00000   0.00000   0.00000   0.00000   2.09440
   A11        2.09440   0.00000   0.00000   0.00000   0.00000   2.09440
   A12        2.09440   0.00000   0.00000   0.00000   0.00000   2.09440
   A13        2.09440   0.00000   0.00000   0.00000   0.00000   2.09440
   A14        2.09440   0.00000   0.00000   0.00000   0.00000   2.09440
   A15        2.09440   0.00000   0.00000   0.00000   0.00000   2.09440
   A16        2.09440   0.00000   0.00000   0.00000   0.00000   2.09440
   A17        2.09440   0.00000   0.00000   0.00000   0.00000   2.09440
   A18        2.09440   0.00000   0.00000   0.00000   0.00000   2.09440
    D1        0.00000   0.00000   0.00000   0.00000   0.00000   0.00000
    D2        3.14159   0.00000   0.00000   0.00000   0.00000   3.14159
    D3        3.14159   0.00000   0.00000   0.00000   0.00000   3.14159
    D4        0.00000   0.00000   0.00000   0.00000   0.00000   0.00000
    D5        0.00000   0.00000   0.00000   0.00000   0.00000   0.00000
    D6        3.14159   0.00000   0.00000   0.00000   0.00000   3.14159
    D7        3.14159   0.00000   0.00000   0.00000   0.00000   3.14159
    D8        0.00000   0.00000   0.00000   0.00000   0.00000   0.00000
    D9        0.00000   0.00000   0.00000   0.00000   0.00000   0.00000
   D10        3.14159   0.00000   0.00000   0.00000   0.00000   3.14159
   D11        3.14159   0.00000   0.00000   0.00000   0.00000   3.14159
   D12        0.00000   0.00000   0.00000   0.00000   0.00000   0.00000
   D13        0.00000   0.00000   0.00000   0.00000   0.00000   0.00000
   D14        3.14159   0.00000   0.00000   0.00000   0.00000   3.14159
   D15        3.14159   0.00000   0.00000   0.00000   0.00000   3.14159
   D16        0.00000   0.00000   0.00000   0.00000   0.00000   0.00000
   D17        0.00000   0.00000   0.00000   0.00000   0.00000   0.00000
   D18        3.14159   0.00000   0.00000   0.00000   0.00000   3.14159
   D19        3.14159   0.00000   0.00000   0.00000   0.00000   3.14159
   D20        0.00000   0.00000   0.00000   0.00000   0.00000   0.00000
   D21        0.00000   0.00000   0.00000   0.00000   0.00000   0.00000
   D22        3.14159   0.00000   0.00000   0.00000   0.00000   3.14159
   D23        3.14159   0.00000   0.00000   0.00000   0.00000   3.14159
   D24        0.00000   0.00000   0.00000   0.00000   0.00000   0.00000
         Item               Value     Threshold  Converged?
 Maximum Force            0.065586     0.000015     NO 
 RMS     Force            0.023106     0.000010     NO 
 Maximum Displacement     0.219558     0.000060     NO 
 RMS     Displacement     0.092072     0.000040     NO 
 Predicted change in Energy=-4.819068D-02
 Lowest energy point so far.  Saving SCF results.
 GradGradGradGradGradGradGradGradGradGradGradGradGradGradGradGradGradGrad

 Leave Link  103 at Thu Aug 22 16:08:33 2019, MaxMem=  1073741824 cpu:         0.0
 (Enter /cluster/apps/gaussian/g09/l202.exe)
                          Input orientation:                          
 ---------------------------------------------------------------------
 Center     Atomic      Atomic             Coordinates (Angstroms)
 Number     Number       Type             X           Y           Z
 ---------------------------------------------------------------------
      1          6           0       -1.419576    0.491143    0.000000
      2          6           0       -0.724550   -0.712678    0.000000
      3          6           0        0.665503   -0.712678    0.000000
      4          6           0        1.360530    0.491143    0.000000
      5          6           0        0.665504    1.694964    0.000000
      6          6           0       -0.724549    1.694964    0.000000
      7          1           0       -1.270218    2.640090    0.000000
      8          1           0        1.211172    2.640090    0.000000
      9          1           0        2.451867    0.491143    0.000000
     10          1           0        1.211172   -1.657804    0.000000
     11          1           0       -1.270218   -1.657804    0.000000
     12          1           0       -2.510913    0.491143    0.000000
 ---------------------------------------------------------------------
                    Distance matrix (angstroms):
                    1          2          3          4          5
     1  C    0.000000
     2  C    1.390053   0.000000
     3  C    2.407642   1.390053   0.000000
     4  C    2.780106   2.407642   1.390053   0.000000
     5  C    2.407642   2.780106   2.407642   1.390053   0.000000
     6  C    1.390053   2.407642   2.780106   2.407642   1.390053
     7  H    2.154131   3.396882   3.871443   3.396882   2.154131
     8  H    3.396882   3.871443   3.396882   2.154131   1.091337
     9  H    3.871443   3.396882   2.154131   1.091337   2.154131
    10  H    3.396882   2.154131   1.091337   2.154131   3.396882
    11  H    2.154131   1.091337   2.154131   3.396882   3.871443
    12  H    1.091337   2.154131   3.396882   3.871443   3.396882
                    6          7          8          9         10
     6  C    0.000000
     7  H    1.091337   0.000000
     8  H    2.154131   2.481390   0.000000
     9  H    3.396882   4.297894   2.481390   0.000000
    10  H    3.871443   4.962781   4.297894   2.481390   0.000000
    11  H    3.396882   4.297894   4.962781   4.297894   2.481390
    12  H    2.154131   2.481390   4.297894   4.962781   4.297894
                   11         12
    11  H    0.000000
    12  H    2.481390   0.000000
 Stoichiometry    C6H6
 Framework group  D6H[3C2'(HC.CH)]
 Deg. of freedom     2
 Full point group                 D6H     NOp  24
 RotChk:  IX=0 Diff= 7.02D-16
 Largest Abelian subgroup         D2H     NOp   8
 Largest concise Abelian subgroup D2      NOp   4
                         Standard orientation:                         
 ---------------------------------------------------------------------
 Center     Atomic      Atomic             Coordinates (Angstroms)
 Number     Number       Type             X           Y           Z
 ---------------------------------------------------------------------
      1          6           0        0.000000    1.390053    0.000000
      2          6           0        1.203821    0.695026    0.000000
      3          6           0        1.203821   -0.695026    0.000000
      4          6           0        0.000000   -1.390053    0.000000
      5          6           0       -1.203821   -0.695026    0.000000
      6          6           0       -1.203821    0.695026    0.000000
      7          1           0       -2.148947    1.240695    0.000000
      8          1           0       -2.148947   -1.240695    0.000000
      9          1           0        0.000000   -2.481390    0.000000
     10          1           0        2.148947   -1.240695    0.000000
     11          1           0        2.148947    1.240695    0.000000
     12          1           0        0.000000    2.481390    0.000000
 ---------------------------------------------------------------------
 Rotational constants (GHZ):      5.7313932      5.7313932      2.8656966
 Leave Link  202 at Thu Aug 22 16:08:33 2019, MaxMem=  1073741824 cpu:         0.0
 (Enter /cluster/apps/gaussian/g09/l301.exe)
 Standard basis: 6-311G(d,p) (5D, 7F)
 Ernie: Thresh=  0.10000D-02 Tol=  0.10000D-05 Strict=F.
 There are    33 symmetry adapted cartesian basis functions of AG  symmetry.
 There are    24 symmetry adapted cartesian basis functions of B1G symmetry.
 There are     7 symmetry adapted cartesian basis functions of B2G symmetry.
 There are    11 symmetry adapted cartesian basis functions of B3G symmetry.
 There are     7 symmetry adapted cartesian basis functions of AU  symmetry.
 There are    11 symmetry adapted cartesian basis functions of B1U symmetry.
 There are    33 symmetry adapted cartesian basis functions of B2U symmetry.
 There are    24 symmetry adapted cartesian basis functions of B3U symmetry.
 There are    31 symmetry adapted basis functions of AG  symmetry.
 There are    23 symmetry adapted basis functions of B1G symmetry.
 There are     7 symmetry adapted basis functions of B2G symmetry.
 There are    11 symmetry adapted basis functions of B3G symmetry.
 There are     7 symmetry adapted basis functions of AU  symmetry.
 There are    11 symmetry adapted basis functions of B1U symmetry.
 There are    31 symmetry adapted basis functions of B2U symmetry.
 There are    23 symmetry adapted basis functions of B3U symmetry.
   144 basis functions,   240 primitive gaussians,   150 cartesian basis functions
    21 alpha electrons       21 beta electrons
       nuclear repulsion energy       203.8792855456 Hartrees.
 IExCor=  402 DFT=T Ex+Corr=B3LYP ExCW=0 ScaHFX=  0.200000
 ScaDFX=  0.800000  0.720000  1.000000  0.810000 ScalE2=  1.000000  1.000000
 IRadAn=      7 IRanWt=     -1 IRanGd=            0 ICorTp=0 IEmpDi=  4
 NAtoms=   12 NActive=   12 NUniq=    2 SFac= 4.00D+00 NAtFMM=   60 NAOKFM=F Big=F
 Integral buffers will be    131072 words long.
 Raffenetti 2 integral format.
 Two-electron integral symmetry is turned on.
 Leave Link  301 at Thu Aug 22 16:08:33 2019, MaxMem=  1073741824 cpu:         0.1
 (Enter /cluster/apps/gaussian/g09/l302.exe)
 NPDir=0 NMtPBC=     1 NCelOv=     1 NCel=       1 NClECP=     1 NCelD=      1
         NCelK=      1 NCelE2=     1 NClLst=     1 CellRange=     0.0.
 One-electron integrals computed using PRISM.
 One-electron integral symmetry used in STVInt
 NBasis=   144 RedAO= T EigKep=  1.75D-04  NBF=    31    23     7    11     7    11    31    23
 NBsUse=   144 1.00D-06 EigRej= -1.00D+00 NBFU=    31    23     7    11     7    11    31    23
 Precomputing XC quadrature grid using
 IXCGrd= 4 IRadAn=           7 IRanWt=          -1 IRanGd=           0 AccXCQ= 0.00D+00.
 Generated NRdTot=       0 NPtTot=           0 NUsed=           0 NTot=          32
 NSgBfM=   150   150   150   150   150 MxSgAt=    12 MxSgA2=    12.
 Leave Link  302 at Thu Aug 22 16:08:33 2019, MaxMem=  1073741824 cpu:         0.8
 (Enter /cluster/apps/gaussian/g09/l303.exe)
 DipDrv:  MaxL=1.
 Leave Link  303 at Thu Aug 22 16:08:33 2019, MaxMem=  1073741824 cpu:         0.1
 (Enter /cluster/apps/gaussian/g09/l401.exe)
 Initial guess from the checkpoint file:  "rb3lyp-opt.chk"
 B after Tr=     0.000000    0.000000    0.000000
         Rot=    1.000000    0.000000    0.000000    0.000000 Ang=   0.00 deg.
 Guess basis will be translated and rotated to current coordinates.
 JPrj=2 DoOrth=T DoCkMO=T.
 Initial guess orbital symmetries:
       Occupied  (A1G) (E1U) (E1U) (E2G) (E2G) (B1U) (A1G) (E1U)
                 (E1U) (E2G) (E2G) (A1G) (B1U) (B2U) (E1U) (E1U)
                 (E2G) (E2G) (A2U) (E1G) (E1G)
       Virtual   (B2G) (B2G) (B2G) (B2G) (B2G) (B2G) (B2G) (B2G)
                 (B2G) (B2G) (B2G) (B2G) (B2G) (B2G) (B2G) (B2G)
                 (B2G) (B2G) (B2G) (B2G) (B2G) (B2G) (B2G) (B2G)
                 (B2G) (B2G) (B2G) (B2G) (B2G) (B2G) (B2G) (B2G)
                 (B2G) (B2G) (B2G) (B2G) (B2G) (B2G) (B2G) (B2G)
                 (B2G) (B2G) (B2G) (B2G) (B2G) (?A) (?A) (?A) (?A)
                 (?A) (?A) (?A) (?A) (?A) (?A) (?A) (?A) (?A) (?A)
                 (?A) (?A) (?B) (?B) (?B) (?B) (?B) (?B) (?B) (?B)
                 (?B) (?B) (?B) (?B) (?B) (?B) (?B) (?B) (?B) (?C)
                 (?C) (?C) (?C) (?C) (?C) (?C) (?C) (?C) (?C) (?C)
                 (?C) (?C) (?C) (?C) (?C) (?C) (?C) (?C) (?C) (?C)
                 (?C) (?C) (?C) (?C) (?C) (?C) (?C) (?C) (?C) (?C)
                 (?C) (?C) (?C) (?C) (?C) (?C) (?C) (?C) (?C) (?C)
                 (?C) (?C) (?C) (?C)
 The electronic state of the initial guess is 1-A1G.
 Generating alternative initial guess.
 ExpMin= 1.03D-01 ExpMax= 4.56D+03 ExpMxC= 6.82D+02 IAcc=3 IRadAn=         5 AccDes= 0.00D+00
 Harris functional with IExCor=  402 and IRadAn=       5 diagonalized for initial guess.
 HarFok:  IExCor=  402 AccDes= 0.00D+00 IRadAn=         5 IDoV= 1 UseB2=F ITyADJ=14
 ICtDFT=  3500011 ScaDFX=  1.000000  1.000000  1.000000  1.000000
 FoFCou: FMM=F IPFlag=           0 FMFlag=      100000 FMFlg1=           0
         NFxFlg=           0 DoJE=T BraDBF=F KetDBF=T FulRan=T
         wScrn=  0.000000 ICntrl=     500 IOpCl=  0 I1Cent=   200000004 NGrid=           0
         NMat0=    1 NMatS0=      1 NMatT0=    0 NMatD0=    1 NMtDS0=    0 NMtDT0=    0
 Petite list used in FoFCou.
 Harris En= -232.348464436145    
 Leave Link  401 at Thu Aug 22 16:08:33 2019, MaxMem=  1073741824 cpu:         0.7
 (Enter /cluster/apps/gaussian/g09/l502.exe)
 Closed shell SCF:
 Using DIIS extrapolation, IDIIS=    10.
 Integral symmetry usage will be decided dynamically.
 Keep R1 ints in memory in symmetry-blocked form, NReq=66076902.
[...]
   D19        3.14159   0.00000   0.00000   0.00000   0.00000   3.14159
   D20        0.00000   0.00000   0.00000   0.00000   0.00000   0.00000
   D21        0.00000   0.00000   0.00000   0.00000   0.00000   0.00000
   D22        3.14159   0.00000   0.00000   0.00000   0.00000   3.14159
   D23        3.14159   0.00000   0.00000   0.00000   0.00000   3.14159
   D24        0.00000   0.00000   0.00000   0.00000   0.00000   0.00000
         Item               Value     Threshold  Converged?
 Maximum Force            0.000009     0.000015     YES
 RMS     Force            0.000003     0.000010     YES
 Maximum Displacement     0.000027     0.000060     YES
 RMS     Displacement     0.000011     0.000040     YES
 Predicted change in Energy=-5.745821D-10
 Optimization completed.
    -- Stationary point found.
                           ----------------------------
                           !   Optimized Parameters   !
                           ! (Angstroms and Degrees)  !
 --------------------------                            --------------------------
 ! Name  Definition              Value          Derivative Info.                !
 --------------------------------------------------------------------------------
 ! R1    R(1,2)                  1.3939         -DE/DX =    0.0                 !
 ! R2    R(1,6)                  1.3939         -DE/DX =    0.0                 !
 ! R3    R(1,12)                 1.0844         -DE/DX =    0.0                 !
 ! R4    R(2,3)                  1.3939         -DE/DX =    0.0                 !
 ! R5    R(2,11)                 1.0844         -DE/DX =    0.0                 !
 ! R6    R(3,4)                  1.3939         -DE/DX =    0.0                 !
 ! R7    R(3,10)                 1.0844         -DE/DX =    0.0                 !
 ! R8    R(4,5)                  1.3939         -DE/DX =    0.0                 !
 ! R9    R(4,9)                  1.0844         -DE/DX =    0.0                 !
 ! R10   R(5,6)                  1.3939         -DE/DX =    0.0                 !
 ! R11   R(5,8)                  1.0844         -DE/DX =    0.0                 !
 ! R12   R(6,7)                  1.0844         -DE/DX =    0.0                 !
 ! A1    A(2,1,6)              120.0            -DE/DX =    0.0                 !
 ! A2    A(2,1,12)             120.0            -DE/DX =    0.0                 !
 ! A3    A(6,1,12)             120.0            -DE/DX =    0.0                 !
 ! A4    A(1,2,3)              120.0            -DE/DX =    0.0                 !
 ! A5    A(1,2,11)             120.0            -DE/DX =    0.0                 !
 ! A6    A(3,2,11)             120.0            -DE/DX =    0.0                 !
 ! A7    A(2,3,4)              120.0            -DE/DX =    0.0                 !
 ! A8    A(2,3,10)             120.0            -DE/DX =    0.0                 !
 ! A9    A(4,3,10)             120.0            -DE/DX =    0.0                 !
 ! A10   A(3,4,5)              120.0            -DE/DX =    0.0                 !
 ! A11   A(3,4,9)              120.0            -DE/DX =    0.0                 !
 ! A12   A(5,4,9)              120.0            -DE/DX =    0.0                 !
 ! A13   A(4,5,6)              120.0            -DE/DX =    0.0                 !
 ! A14   A(4,5,8)              120.0            -DE/DX =    0.0                 !
 ! A15   A(6,5,8)              120.0            -DE/DX =    0.0                 !
 ! A16   A(1,6,5)              120.0            -DE/DX =    0.0                 !
 ! A17   A(1,6,7)              120.0            -DE/DX =    0.0                 !
 ! A18   A(5,6,7)              120.0            -DE/DX =    0.0                 !
 ! D1    D(6,1,2,3)              0.0            -DE/DX =    0.0                 !
 ! D2    D(6,1,2,11)           180.0            -DE/DX =    0.0                 !
 ! D3    D(12,1,2,3)           180.0            -DE/DX =    0.0                 !
 ! D4    D(12,1,2,11)            0.0            -DE/DX =    0.0                 !
 ! D5    D(2,1,6,5)              0.0            -DE/DX =    0.0                 !
 ! D6    D(2,1,6,7)            180.0            -DE/DX =    0.0                 !
 ! D7    D(12,1,6,5)           180.0            -DE/DX =    0.0                 !
 ! D8    D(12,1,6,7)             0.0            -DE/DX =    0.0                 !
 ! D9    D(1,2,3,4)              0.0            -DE/DX =    0.0                 !
 ! D10   D(1,2,3,10)           180.0            -DE/DX =    0.0                 !
 ! D11   D(11,2,3,4)           180.0            -DE/DX =    0.0                 !
 ! D12   D(11,2,3,10)            0.0            -DE/DX =    0.0                 !
 ! D13   D(2,3,4,5)              0.0            -DE/DX =    0.0                 !
 ! D14   D(2,3,4,9)            180.0            -DE/DX =    0.0                 !
 ! D15   D(10,3,4,5)           180.0            -DE/DX =    0.0                 !
 ! D16   D(10,3,4,9)             0.0            -DE/DX =    0.0                 !
 ! D17   D(3,4,5,6)              0.0            -DE/DX =    0.0                 !
 ! D18   D(3,4,5,8)            180.0            -DE/DX =    0.0                 !
 ! D19   D(9,4,5,6)            180.0            -DE/DX =    0.0                 !
 ! D20   D(9,4,5,8)              0.0            -DE/DX =    0.0                 !
 ! D21   D(4,5,6,1)              0.0            -DE/DX =    0.0                 !
 ! D22   D(4,5,6,7)            180.0            -DE/DX =    0.0                 !
 ! D23   D(8,5,6,1)            180.0            -DE/DX =    0.0                 !
 ! D24   D(8,5,6,7)              0.0            -DE/DX =    0.0                 !
 --------------------------------------------------------------------------------
 Lowest energy point so far.  Saving SCF results.
 GradGradGradGradGradGradGradGradGradGradGradGradGradGradGradGradGradGrad

 Largest change from initial coordinates is atom    9       0.202 Angstoms.
 Leave Link  103 at Thu Aug 22 16:09:03 2019, MaxMem=  1073741824 cpu:         0.0
 (Enter /cluster/apps/gaussian/g09/l202.exe)
                          Input orientation:                          
 ---------------------------------------------------------------------
 Center     Atomic      Atomic             Coordinates (Angstroms)
 Number     Number       Type             X           Y           Z
 ---------------------------------------------------------------------
      1          6           0       -1.423441    0.491143    0.000000
      2          6           0       -0.726482   -0.716025    0.000000
      3          6           0        0.667436   -0.716025    0.000000
      4          6           0        1.364395    0.491143    0.000000
      5          6           0        0.667436    1.698311    0.000000
      6          6           0       -0.726482    1.698311    0.000000
      7          1           0       -1.268690    2.637444    0.000000
      8          1           0        1.209644    2.637444    0.000000
      9          1           0        2.448811    0.491143    0.000000
     10          1           0        1.209644   -1.655158    0.000000
     11          1           0       -1.268690   -1.655158    0.000000
     12          1           0       -2.507857    0.491143    0.000000
 ---------------------------------------------------------------------
                    Distance matrix (angstroms):
                    1          2          3          4          5
     1  C    0.000000
     2  C    1.393918   0.000000
     3  C    2.414336   1.393918   0.000000
     4  C    2.787835   2.414336   1.393918   0.000000
     5  C    2.414336   2.787835   2.414336   1.393918   0.000000
     6  C    1.393918   2.414336   2.787835   2.414336   1.393918
     7  H    2.151872   3.397020   3.872252   3.397020   2.151872
     8  H    3.397020   3.872252   3.397020   2.151872   1.084417
     9  H    3.872252   3.397020   2.151872   1.084417   2.151872
    10  H    3.397020   2.151872   1.084417   2.151872   3.397020
    11  H    2.151872   1.084417   2.151872   3.397020   3.872252
    12  H    1.084417   2.151872   3.397020   3.872252   3.397020
                    6          7          8          9         10
     6  C    0.000000
     7  H    1.084417   0.000000
     8  H    2.151872   2.478334   0.000000
     9  H    3.397020   4.292601   2.478334   0.000000
    10  H    3.872252   4.956669   4.292601   2.478334   0.000000
    11  H    3.397020   4.292601   4.956669   4.292601   2.478334
    12  H    2.151872   2.478334   4.292601   4.956669   4.292601
                   11         12
    11  H    0.000000
    12  H    2.478334   0.000000
 Stoichiometry    C6H6
 Framework group  D6H[3C2'(HC.CH)]
 Deg. of freedom     2
 Full point group                 D6H     NOp  24
 RotChk:  IX=0 Diff= 7.02D-16
 Largest Abelian subgroup         D2H     NOp   8
 Largest concise Abelian subgroup D2      NOp   4
                         Standard orientation:                         
 ---------------------------------------------------------------------
 Center     Atomic      Atomic             Coordinates (Angstroms)
 Number     Number       Type             X           Y           Z
 ---------------------------------------------------------------------
      1          6           0        0.000000    1.393918    0.000000
      2          6           0        1.207168    0.696959    0.000000
      3          6           0        1.207168   -0.696959    0.000000
      4          6           0        0.000000   -1.393918    0.000000
      5          6           0       -1.207168   -0.696959    0.000000
      6          6           0       -1.207168    0.696959    0.000000
      7          1           0       -2.146301    1.239167    0.000000
      8          1           0       -2.146301   -1.239167    0.000000
      9          1           0        0.000000   -2.478334    0.000000
     10          1           0        2.146301   -1.239167    0.000000
     11          1           0        2.146301    1.239167    0.000000
     12          1           0        0.000000    2.478334    0.000000
 ---------------------------------------------------------------------
 Rotational constants (GHZ):      5.7092812      5.7092812      2.8546406
 Leave Link  202 at Thu Aug 22 16:09:03 2019, MaxMem=  1073741824 cpu:         0.0
 (Enter /cluster/apps/gaussian/g09/l601.exe)
 Copying SCF densities to generalized density rwf, IOpCl= 0 IROHF=0.

 **********************************************************************

            Population analysis using the SCF density.

 **********************************************************************

 Orbital symmetries:
       Occupied  (A1G) (E1U) (E1U) (E2G) (E2G) (B1U) (A1G) (E1U)
                 (E1U) (E2G) (E2G) (A1G) (B1U) (B2U) (E1U) (E1U)
                 (A2U) (E2G) (E2G) (E1G) (E1G)
       Virtual   (E2U) (E2U) (A1G) (E1U) (E1U) (E2G) (E2G) (B1U)
                 (B2G) (E2G) (E2G) (E1U) (E1U) (A1G) (B2U) (A2U)
                 (E1U) (E1U) (B1U) (E2G) (E2G) (E1G) (E1G) (A1G)
                 (E2U) (E2U) (A2G) (E1U) (E1U) (B2G) (E2G) (E2G)
                 (B1U) (A1G) (E1U) (E1U) (E2G) (E2G) (B1U) (A2G)
                 (E1U) (E1U) (A2U) (E2G) (E2G) (B1G) (E1G) (E1G)
                 (E2U) (E2U) (B1U) (A1G) (B2U) (E1U) (E1U) (A1G)
                 (B2G) (E2U) (E2U) (E2G) (E2G) (E1U) (E1U) (A2U)
                 (E2G) (E2G) (E1G) (E1G) (B2U) (E1U) (E1U) (B1U)
                 (A2G) (E1G) (E1G) (E2G) (E2G) (E2U) (E2U) (A1G)
                 (E1U) (E1U) (B2G) (A1U) (E2G) (E2G) (A2U) (A1G)
                 (E1U) (E1U) (B1U) (E1U) (E1U) (E2G) (E2G) (B1U)
                 (E1G) (E1G) (E2U) (E2U) (E2G) (E2G) (A2G) (B2G)
                 (B2U) (E2G) (E2G) (A1G) (E1U) (E1U) (B1U) (E2G)
                 (E2G) (B1U) (E1U) (E1U) (A2G) (A1G) (E1U) (E1U)
                 (E2G) (E2G) (B1U)
 The electronic state is 1-A1G.
 Alpha  occ. eigenvalues --  -10.17464 -10.17440 -10.17440 -10.17385 -10.17385
 Alpha  occ. eigenvalues --  -10.17358  -0.85617  -0.74804  -0.74804  -0.60499
 Alpha  occ. eigenvalues --   -0.60499  -0.52670  -0.46364  -0.44971  -0.42475
 Alpha  occ. eigenvalues --   -0.42475  -0.36973  -0.34765  -0.34765  -0.25638
 Alpha  occ. eigenvalues --   -0.25638
 Alpha virt. eigenvalues --   -0.00942  -0.00942   0.04233   0.07701   0.07701
 Alpha virt. eigenvalues --    0.11088   0.11088   0.13666   0.14819   0.26842
 Alpha virt. eigenvalues --    0.26842   0.28454   0.28454   0.30483   0.34301
 Alpha virt. eigenvalues --    0.39011   0.40404   0.40404   0.42545   0.44064
 Alpha virt. eigenvalues --    0.44064   0.44626   0.44626   0.45081   0.52519
 Alpha virt. eigenvalues --    0.52519   0.53468   0.60162   0.60162   0.60329
 Alpha virt. eigenvalues --    0.60641   0.60641   0.65059   0.68533   0.72651
 Alpha virt. eigenvalues --    0.72651   0.73688   0.73688   0.80040   0.84085
 Alpha virt. eigenvalues --    0.85476   0.85476   0.93652   1.00810   1.00810
 Alpha virt. eigenvalues --    1.01460   1.08083   1.08083   1.14211   1.14211
 Alpha virt. eigenvalues --    1.23770   1.26532   1.40535   1.44665   1.44665
 Alpha virt. eigenvalues --    1.48719   1.54970   1.55476   1.55476   1.57990
 Alpha virt. eigenvalues --    1.57990   1.64372   1.64372   1.71067   1.74100
 Alpha virt. eigenvalues --    1.74100   1.77521   1.77521   1.84877   1.89964
 Alpha virt. eigenvalues --    1.89964   1.90529   1.91456   1.92008   1.92008
 Alpha virt. eigenvalues --    1.98681   1.98681   2.08044   2.08044   2.19077
 Alpha virt. eigenvalues --    2.29097   2.29097   2.31727   2.34746   2.38654
 Alpha virt. eigenvalues --    2.38654   2.55512   2.58710   2.59833   2.59833
 Alpha virt. eigenvalues --    2.62734   2.63192   2.63192   2.64561   2.64561
 Alpha virt. eigenvalues --    2.69844   2.71245   2.71245   2.83882   2.83882
 Alpha virt. eigenvalues --    2.90476   2.90476   2.91111   3.04498   3.06460
 Alpha virt. eigenvalues --    3.32276   3.32276   3.46024   3.46617   3.46617
 Alpha virt. eigenvalues --    3.67767   3.96091   3.96091   4.07934   4.11137
 Alpha virt. eigenvalues --    4.11137   4.83617  23.51552  23.94627  23.94627
 Alpha virt. eigenvalues --   24.09462  24.09462  24.19900
          Condensed to atoms (all electrons):
               1          2          3          4          5          6
     1  C    4.855205   0.523595  -0.058750  -0.035993  -0.058750   0.523595
     2  C    0.523595   4.855205   0.523595  -0.058750  -0.035993  -0.058750
     3  C   -0.058750   0.523595   4.855205   0.523595  -0.058750  -0.035993
     4  C   -0.035993  -0.058750   0.523595   4.855205   0.523595  -0.058750
     5  C   -0.058750  -0.035993  -0.058750   0.523595   4.855205   0.523595
     6  C    0.523595  -0.058750  -0.035993  -0.058750   0.523595   4.855205
     7  H   -0.042151   0.007511  -0.000545   0.007511  -0.042151   0.415429
     8  H    0.007511  -0.000545   0.007511  -0.042151   0.415429  -0.042151
     9  H   -0.000545   0.007511  -0.042151   0.415429  -0.042151   0.007511
    10  H    0.007511  -0.042151   0.415429  -0.042151   0.007511  -0.000545
    11  H   -0.042151   0.415429  -0.042151   0.007511  -0.000545   0.007511
    12  H    0.415429  -0.042151   0.007511  -0.000545   0.007511  -0.042151
               7          8          9         10         11         12
     1  C   -0.042151   0.007511  -0.000545   0.007511  -0.042151   0.415429
     2  C    0.007511  -0.000545   0.007511  -0.042151   0.415429  -0.042151
     3  C   -0.000545   0.007511  -0.042151   0.415429  -0.042151   0.007511
     4  C    0.007511  -0.042151   0.415429  -0.042151   0.007511  -0.000545
     5  C   -0.042151   0.415429  -0.042151   0.007511  -0.000545   0.007511
     6  C    0.415429  -0.042151   0.007511  -0.000545   0.007511  -0.042151
     7  H    0.576812  -0.008138  -0.000363   0.000078  -0.000363  -0.008138
     8  H   -0.008138   0.576812  -0.008138  -0.000363   0.000078  -0.000363
     9  H   -0.000363  -0.008138   0.576812  -0.008138  -0.000363   0.000078
    10  H    0.000078  -0.000363  -0.008138   0.576812  -0.008138  -0.000363
    11  H   -0.000363   0.000078  -0.000363  -0.008138   0.576812  -0.008138
    12  H   -0.008138  -0.000363   0.000078  -0.000363  -0.008138   0.576812
 Mulliken charges:
               1
     1  C   -0.094506
     2  C   -0.094506
     3  C   -0.094506
     4  C   -0.094506
     5  C   -0.094506
     6  C   -0.094506
     7  H    0.094506
     8  H    0.094506
     9  H    0.094506
    10  H    0.094506
    11  H    0.094506
    12  H    0.094506
 Sum of Mulliken charges =   0.00000
 Mulliken charges with hydrogens summed into heavy atoms:
               1
     1  C    0.000000
     2  C    0.000000
     3  C    0.000000
     4  C    0.000000
     5  C    0.000000
     6  C    0.000000
 Electronic spatial extent (au):  <R**2>=            458.2179
 Charge=              0.0000 electrons
 Dipole moment (field-independent basis, Debye):
    X=              0.0000    Y=              0.0000    Z=              0.0000  Tot=              0.0000
 Quadrupole moment (field-independent basis, Debye-Ang):
   XX=            -31.8556   YY=            -31.8556   ZZ=            -39.6201
   XY=              0.0000   XZ=              0.0000   YZ=              0.0000
 Traceless Quadrupole moment (field-independent basis, Debye-Ang):
   XX=              2.5882   YY=              2.5882   ZZ=             -5.1763
   XY=              0.0000   XZ=              0.0000   YZ=              0.0000
 Octapole moment (field-independent basis, Debye-Ang**2):
  XXX=              0.0000  YYY=              0.0000  ZZZ=              0.0000  XYY=              0.0000
  XXY=              0.0000  XXZ=              0.0000  XZZ=              0.0000  YZZ=              0.0000
  YYZ=              0.0000  XYZ=              0.0000
 Hexadecapole moment (field-independent basis, Debye-Ang**3):
 XXXX=           -272.7823 YYYY=           -272.7823 ZZZZ=            -44.9264 XXXY=              0.0000
 XXXZ=              0.0000 YYYX=              0.0000 YYYZ=              0.0000 ZZZX=              0.0000
 ZZZY=              0.0000 XXYY=            -90.9274 XXZZ=            -62.8439 YYZZ=            -62.8439
 XXYZ=              0.0000 YYXZ=              0.0000 ZZXY=              0.0000
 N-N= 2.035940498526D+02 E-N=-9.458401808063D+02  KE= 2.312611318129D+02
 Symmetry AG   KE= 7.450379150102D+01
 Symmetry B1G  KE= 3.769500276641D+01
 Symmetry B2G  KE= 2.254196153817D+00
 Symmetry B3G  KE= 2.254196153817D+00
 Symmetry AU   KE=-2.007465296852D-16
 Symmetry B1U  KE= 1.884766413930D+00
 Symmetry B2U  KE= 7.210666419873D+01
 Symmetry B3U  KE= 4.056251462520D+01
 No NMR shielding tensors so no spin-rotation constants.
 Leave Link  601 at Thu Aug 22 16:09:04 2019, MaxMem=  1073741824 cpu:         0.4
 (Enter /cluster/apps/gaussian/g09/l9999.exe)
 1\1\GINC-EU-MS-019-39\FOpt\RB3LYP\6-311G(d,p)\C6H6\CARLOP\22-Aug-2019\
 0\\#p b3lyp/6-311G(d,p) scf=(maxcycle=2048,cdiis,conver=8) symmetry=(o
 n,loose) int=superfine opt=tight\\benz\\0,1\C,-1.4234407106,0.49114305
 51,0.\C,-0.7264819031,-0.7160251206,0.\C,0.6674358076,-0.7160251757,0.
 \C,1.3643947106,0.4911429449,0.\C,0.6674359031,1.6983111206,0.\C,-0.72
 64818076,1.6983111757,0.\H,-1.2686901418,2.6374436447,0.\H,1.209644311
 6,2.6374435467,0.\H,2.4488114534,0.491142902,0.\H,1.2096441418,-1.6551
 576447,0.\H,-1.2686903116,-1.6551575467,0.\H,-2.5078574534,0.491143098
 ,0.\\Version=ES64L-G09RevD.01\State=1-A1G\HF=-232.3085451\RMSD=9.674e-
 09\RMSF=2.739e-06\Dipole=0.,0.,0.\Quadrupole=1.9242386,1.9242386,-3.84
 84772,0.,0.,0.\PG=D06H [3C2'(H1C1.C1H1)]\\@


 IF OTHER PEOPLE ARE GOING TO TALK, CONVERSATION IS SIMPLY IMPOSSIBLE.

                                               -- WHISTLER'S PRINCIPLE
 Job cpu time:       0 days  0 hours  3 minutes  3.6 seconds.
 File lengths (MBytes):  RWF=     11 Int=      0 D2E=      0 Chk=      3 Scr=      1
 Normal termination of Gaussian 09 at Thu Aug 22 16:09:04 2019.
